% Model:              thermoviscous.mph
% Version:            COMSOL 5.4.0.225
% Date:               Aug 2 2019, 19:50
% Dimension:          1
% Nodes:              961
% Expressions:        1
% Description:        Line graph
% cln1x                   Height
0                         -83.8277928134419
1.4999999999999996E-4     -92.62868303658121
3.75E-4                   -105.8300183712902
5.250000000000001E-4      -114.63090859442953
7.5E-4                    -127.8322439291385
8.999999999999999E-4      -136.63313415227782
0.0011250000000000001     -149.83446948698682
0.001275                  -158.63535971012612
0.0015                    -171.83669504483515
0.00165                   -178.61357051713549
0.0018750000000000004     -188.77888372558598
0.0020250000000000003     -195.5557591978864
0.0022500000000000003     -205.7210724063369
0.0024000000000000002     -212.49794787863726
0.0026250000000000006     -222.66326108708785
0.002775                  -229.44013655938818
0.003                     -239.6054497678387
0.00315                   -244.1035960500929
0.0033750000000000004     -250.85081547347414
0.003525000000000001      -255.3489617557283
0.00375                   -262.0961811791096
0.0039                    -266.5943274613638
0.004125                  -273.34154688474507
0.004275                  -277.8396931669992
0.0045                    -284.58691259038056
0.004649999999999999      -286.7502353569893
0.004874999999999999      -289.9952195069025
0.005025                  -292.15854227351133
0.0052499999999999995     -295.4035264234245
0.0053999999999999986     -297.56684919003334
0.005624999999999999      -300.8118333399466
0.005775000000000001      -302.97515610655535
0.006                     -306.2201402564686
0.006150000000000001      -306.14595730500577
0.0063750000000000005     -306.0346828778116
0.006525                  -305.9604999263488
0.00675                   -305.8492254991546
0.006899999999999999      -305.7750425476919
0.007125000000000002      -305.6637681204977
0.007274999999999999      -305.58958516903493
0.0075                    -305.47831074184074
0.007650000000000001      -303.40263872218816
0.007875000000000004      -300.28913069270925
0.008025000000000001      -298.21345867305666
0.00825                   -295.0999506435778
0.0084                    -293.0242786239252
0.008624999999999999      -289.9107705944464
0.008775                  -287.8350985747937
0.009                     -284.7215905453148
0.009149999999999997      -280.98732768744605
0.009374999999999998      -275.3859334006428
0.009525                  -271.65167054277384
0.009749999999999998      -266.0502762559707
0.0099                    -262.3160133981018
0.010124999999999999      -256.7146191112986
0.010275                  -252.98035625342976
0.010499999999999999      -247.37896196662646
0.01065                   -242.40283459220424
0.010875                  -234.9386435305709
0.011025                  -229.96251615614864
0.01125                   -222.49832509451534
0.011399999999999999      -217.52219772009312
0.011624999999999998      -210.05800665845982
0.011774999999999999      -205.0818792840376
0.012                     -197.6176882224042
0.012150000000000001      -191.85508706378656
0.012375                  -183.21118532585993
0.012525                  -177.44858416724225
0.012750000000000001      -168.80468242931568
0.0129                    -163.04208127069802
0.013125                  -154.39817953277156
0.013275000000000002      -148.63557837415377
0.0135                    -139.99167663622728
0.013649999999999997      -133.9027528794743
0.013874999999999998      -124.76936724434469
0.014025                  -118.68044348759165
0.014249999999999999      -109.54705785246196
0.014399999999999998      -103.45813409570916
0.014624999999999999      -94.32474846057957
0.014775000000000002      -88.2358247038265
0.015                     -79.10243906869704
0.01515                   -73.12133826157867
0.015375                  -64.1496870509013
0.015525                  -58.16858624378289
0.01575                   -49.19693503310572
0.015899999999999997      -43.21583422598752
0.016125                  -34.2441830153101
0.016275                  -28.263082208191783
0.0165                    -19.291430997514507
0.016649999999999998      -13.800423332031867
0.016875                  -5.563911833807531
0.017025000000000002      -0.0729041683249092
0.01725                   8.163607329899282
0.0174                    13.654614995381992
0.017625000000000002      21.89112649360621
0.017775                  27.38213415908888
0.018                     35.61864565731311
0.01815                   40.30895774326028
0.018375                  47.34442587218119
0.018525                  52.03473795812845
0.01875                   59.070206087049314
0.0189                    63.7605181729967
0.019124999999999996      70.7959863019174
0.019274999999999997      75.48629838786454
0.019499999999999997      82.52176651678572
0.01965                   86.18548443245247
0.019875                  91.68106130595284
0.020025                  95.34477922161962
0.02025                   100.8403560951198
0.0204                    104.50407401078675
0.020624999999999998      109.9996508842869
0.020775000000000002      113.66336879995382
0.020999999999999998      119.1589456734541
0.02115                   121.6609950698806
0.021374999999999995      125.41406916452031
0.021525000000000002      127.91611856094696
0.02175                   131.6691926555867
0.0219                    134.17124205201318
0.022125                  137.9243161466529
0.022275000000000003      140.42636554307956
0.0225                    144.17943963771918
0.022649999999999997      145.47508565019052
0.022875000000000003      147.4185546688978
0.023025000000000007      148.7142006813693
0.023249999999999996      150.65766970007633
0.0234                    151.95331571254778
0.023625                  153.8967847312549
0.023775000000000004      155.1924307437264
0.024                     157.13589976243352
0.024149999999999998      157.264370411488
0.024374999999999997      157.45707638506966
0.024525000000000005      157.58554703412415
0.02475                   157.77825300770576
0.0249                    157.90672365676022
0.025125000000000005      158.09942963034192
0.025275                  158.22790027939635
0.0255                    158.42060625297802
0.025649999999999996      157.49385115987033
0.025875                  156.10371852020884
0.026024999999999996      155.17696342710116
0.02625                   153.7868307874396
0.0264                    152.8600756943319
0.026625000000000003      151.46994305467038
0.026775000000000004      150.5431879615627
0.027                     149.1530553219012
0.027149999999999997      147.3408809267367
0.027374999999999997      144.6226193339899
0.027525                  142.8104449388253
0.027749999999999997      140.09218334607849
0.027899999999999994      138.28000895091395
0.028124999999999997      135.56174735816708
0.02827499999999999       133.74957296300266
0.028499999999999998      131.03131137025585
0.028649999999999995      128.5442441269512
0.028874999999999998      124.81364326199419
0.029025                  122.32657601868985
0.029249999999999998      118.595975153733
0.0294                    116.10890791042834
0.029625                  112.37830704547153
0.029775000000000003      109.89123980216695
0.03                      106.16063893721004
0.03015                   103.23187798732035
0.030375                  98.83873656248569
0.030525                  95.90997561259599
0.03075                   91.5168341877614
0.030899999999999997      88.5880732378717
0.031125                  84.1949318130369
0.031275                  81.26617086314722
0.0315                    76.87302943831273
0.03165                   73.74076970747917
0.031875                  69.04238011122916
0.032025                  65.91012038039565
0.03225                   61.21173078414571
0.0324                    58.079471053312375
0.032625                  53.38108145706232
0.032775                  50.248821726228954
0.033                     45.550432129978795
0.03314999999999999       42.44168229202868
0.033375                  37.778557535102756
0.033525                  34.66980769715243
0.03375                   30.0066829402269
0.0339                    26.897933102276557
0.034125                  22.23480834535093
0.034275                  19.126058507400582
0.0345                    14.46293375047495
0.03465                   11.579739191201085
0.03487500000000001       7.254947352290336
0.03502500000000001       4.371752793016555
0.035250000000000004      0.0469609541056597
0.0354                    -2.8362336051680876
0.035625000000000004      -7.161025444079091
0.035775                  -10.044220003352837
0.036                     -14.369011842263633
0.036149999999999995      -16.86028299693352
0.036375                  -20.597189728938385
0.036524999999999995      -23.08846088360848
0.03675                   -26.825367615613352
0.0369                    -29.31663877028333
0.037125                  -33.05354550228827
0.03727499999999998       -35.544816656957956
0.0375                    -39.28172338896303
0.037649999999999996      -41.2576424637827
0.037875000000000006      -44.221521076012344
0.038024999999999996      -46.197440150831746
0.03824999999999999       -49.16131876306119
0.038400000000000004      -51.13723783788087
0.03862499999999999       -54.101116450110084
0.038775                  -56.077035524929784
0.03899999999999999       -59.04091413715916
0.039150000000000004      -60.4246807312073
0.039375                  -62.50033062227932
0.039525000000000005      -63.884097216327376
0.03975                   -65.95974710739944
0.039900000000000005      -67.34351370144758
0.040124999999999994      -69.41916359251945
0.04027499999999999       -70.80293018656754
0.0405                    -72.87858007763968
0.040650000000000006      -73.640263506439
0.040875                  -74.78278864963792
0.041025                  -75.54447207843714
0.041249999999999995      -76.68699722163605
0.041400000000000006      -77.44868065043538
0.041624999999999995      -78.59120579363419
0.041775                  -79.35288922243353
0.041999999999999996      -80.49541436563241
0.04215                   -80.64908745460961
0.042374999999999996      -80.8795970880753
0.04252499999999999       -81.03327017705246
0.04274999999999999       -81.26377981051816
0.042899999999999994      -81.41745289949532
0.043125                  -81.64796253296103
0.043275                  -81.8016356219382
0.0435                    -82.03214525540389
0.043649999999999994      -81.63041957067684
0.043875000000000004      -81.02783104358619
0.044024999999999995      -80.62610535885912
0.04425                   -80.02351683176848
0.044399999999999995      -79.62179114704144
0.044625                  -79.01920261995079
0.044774999999999995      -78.61747693522369
0.045                     -78.01488840813306
0.04515                   -77.14147841027071
0.045375                  -75.83136341347708
0.04552499999999999       -74.95795341561471
0.04575                   -73.64783841882111
0.04589999999999999       -72.77442842095877
0.04612499999999999       -71.4643134241652
0.04627499999999999       -70.59090342630283
0.04649999999999999       -69.28078842950919
0.04665                   -68.04179695074961
0.046875                  -66.18330973261037
0.047025                  -64.94431825385085
0.04725                   -63.08583103571155
0.047400000000000005      -61.84683955695197
0.047625                  -59.98835233881275
0.04777500000000001       -58.749360860053166
0.048                     -56.89087364191395
0.04815                   -55.40550376492684
0.048374999999999994      -53.17744894944606
0.048525                  -51.69207907245867
0.048749999999999995      -49.46402425697788
0.0489                    -47.978654379990544
0.049125                  -45.75059956450962
0.049275000000000006      -44.26522968752238
0.0495                    -42.03717487204159
0.04964999999999999       -40.42853828335396
0.049875                  -38.0155834003224
0.05002500000000001       -36.406946811634704
0.05025000000000001       -33.99399192860314
0.0504                    -32.385355339915655
0.05062500000000001       -29.97240045688399
0.050775                  -28.363763868196546
0.051                     -25.950808985165043
0.05114999999999999       -24.337425409883927
0.051375000000000004      -21.91735004696191
0.051525                  -20.303966471680987
0.05175                   -17.88389110875928
0.051899999999999995      -16.27050753347824
0.05212499999999999       -13.850432170556571
0.05227500000000001       -12.237048595275203
0.0525                    -9.816973232353503
0.052649999999999995      -8.305448766217973
0.052875                  -6.038162067014502
0.053024999999999996      -4.5266376008789475
0.05325                   -2.259350901675653
0.0534                    -0.7478264355400487
0.053625000000000006      1.5194602636633456
0.053775                  3.030984729799005
0.054                     5.2982714290022805
0.05415                   6.619027133791078
0.05437500000000001       8.600160690974484
0.054525                  9.920916395763204
0.05474999999999999       11.9020499529465
0.0549                    13.22280565773529
0.05512499999999999       15.203939214918584
0.055275000000000005      16.52469491970757
0.0555                    18.50582847689067
0.055650000000000005      19.56862456116483
0.055875                  21.162818687575832
0.056025000000000005      22.22561477184996
0.056249999999999994      23.819808898260902
0.05640000000000001       24.882604982534968
0.05662500000000001       26.476799108945947
0.05677499999999999       27.539595193219927
0.056999999999999995      29.13378931963091
0.057149999999999986      29.895332641684277
0.057374999999999995      31.037647624764332
0.057525                  31.799190946817696
0.057749999999999996      32.9415059298977
0.05789999999999999       33.703049251951
0.058125                  34.84536423503113
0.058274999999999993      35.60690755708438
0.058499999999999996      36.749222540164354
0.058649999999999994      37.19050001931291
0.058875                  37.85241623803565
0.059024999999999994      38.2936937171841
0.05925                   38.95560993590682
0.05939999999999999       39.396887415055296
0.059624999999999984      40.05880363377802
0.05977499999999999       40.5000811129265
0.06                      41.16199733164929
0.06014999999999999       41.28702188870853
0.06037499999999999       41.47455872429745
0.060524999999999995      41.59958328135673
0.06074999999999999       41.787120116945644
0.060899999999999996      41.91214467400491
0.061125                  42.09968150959382
0.061274999999999996      42.2247060666531
0.0615                    42.412242902242006
0.06164999999999999       42.24541428211523
0.061875000000000006      41.99517135192493
0.062025000000000004      41.82834273179815
0.06225                   41.57809980160792
0.0624                    41.4112711814811
0.062625                  41.16102825129086
0.062775                  40.99419963116405
0.063                     40.74395670097378
0.06315                   40.32635364412531
0.06337499999999999       39.69994905885269
0.063525                  39.282346002004175
0.06375                   38.655941416731466
0.0639                    38.238338359883016
0.06412500000000002       37.611933774610286
0.064275                  37.194330717761815
0.0645                    36.56792613248915
0.06465                   35.95288400504014
0.06487499999999999       35.0303208138668
0.065025                  34.41527868641774
0.06525                   33.492715495244305
0.0654                    32.87767336779537
0.065625                  31.955110176621822
0.065775                  31.3400680491729
0.066                     30.417504857999436
0.06615                   29.66584331938988
0.06637499999999999       28.538351011475772
0.066525                  27.786689472866243
0.06675                   26.659197164951884
0.0669                    25.907535626342437
0.067125                  24.780043318428188
0.067275                  24.02838177981869
0.0675                    22.900889471904332
0.06765                   22.07614016902077
0.06787500000000002       20.839016214695285
0.06802500000000002       20.01426691181177
0.06825                   18.77714295748631
0.0684                    17.952393654602805
0.068625                  16.71526970027733
0.068775                  15.890520397393747
0.069                     14.653396443068209
0.06914999999999999       13.817344615044941
0.069375                  12.563266873009553
0.06952499999999999       11.727215044986165
0.06974999999999999       10.473137302950784
0.0699                    9.637085474927204
0.07012499999999999       8.38300773289195
0.07027499999999999       7.546955904868505
0.0705                    6.2928781628331425
0.07064999999999999       5.501679015429231
0.07087500000000001       4.314880294323028
0.071025                  3.5236811469189364
0.07125                   2.3368824258128646
0.07139999999999999       1.545683278408869
0.071625                  0.3588845573028123
0.07177499999999999       -0.4323145901011783
0.072                     -1.6191133112072744
0.07214999999999999       -2.3180473156225916
0.072375                  -3.366448322245384
0.072525                  -4.065382326660655
0.07275                   -5.113783333283487
0.07289999999999999       -5.812717337698716
0.073125                  -6.861118344321554
0.07327499999999999       -7.560052348736812
0.0735                    -8.608453355359652
0.07365                   -9.178669084658232
0.073875                  -10.033992678605996
0.074025                  -10.604208407904556
0.07425                   -11.459532001852297
0.07439999999999998       -12.029747731150753
0.074625                  -12.885071325098568
0.074775                  -13.455287054397084
0.075                     -14.310610648344934
0.07515                   -14.727881412847315
0.075375                  -15.353787559601054
0.07552500000000001       -15.771058324103517
0.07575000000000001       -16.39696447085719
0.0759                    -16.814235235359625
0.076125                  -17.44014138211329
0.076275                  -17.857412146615697
0.07649999999999998       -18.48331829336935
0.07664999999999998       -18.73597608478395
0.07687500000000001       -19.114962771905905
0.07702500000000001       -19.367620563320475
0.07725                   -19.74660725044238
0.07740000000000001       -19.999265041857008
0.07762499999999999       -20.378251728978857
0.07777500000000001       -20.63090952039348
0.07799999999999999       -21.009896207515336
0.07815                   -21.09830364882827
0.078375                  -21.23091481079765
0.078525                  -21.319322252110574
0.07875                   -21.45193341407996
0.0789                    -21.54034085539288
0.079125                  -21.67295201736226
0.079275                  -21.761359458675184
0.0795                    -21.89397062064457
0.07965                   -21.829256100919718
0.079875                  -21.732184321332433
0.08002500000000001       -21.667469801607563
0.08025                   -21.57039802202027
0.0804                    -21.505683502295415
0.080625                  -21.408611722708137
0.08077500000000001       -21.343897202983268
0.081                     -21.246825423395983
0.08115                   -21.049040616783255
0.08137499999999999       -20.75236340686415
0.08152500000000001       -20.554578600251386
0.08175000000000002       -20.257901390332282
0.0819                    -20.06011658371955
0.082125                  -19.763439373800438
0.08227499999999997       -19.565654567187746
0.08249999999999999       -19.268977357268614
0.08265                   -18.964857894676946
0.082875                  -18.508678700789435
0.08302500000000002       -18.20455923819774
0.08325                   -17.748380044310217
0.08339999999999999       -17.4442605817186
0.083625                  -16.98808138783106
0.08377500000000002       -16.683961925239316
0.08399999999999999       -16.22778273135188
0.08415                   -15.848300247832674
0.08437499999999999       -15.279076522553956
0.08452500000000002       -14.899594039034799
0.08475                   -14.330370313756081
0.0849                    -13.950887830236931
0.085125                  -13.381664104958174
0.085275                  -13.002181621439032
0.0855                    -12.43295789616023
0.08565                   -12.010845982748373
0.085875                  -11.37767811263057
0.08602499999999999       -10.95556619921869
0.08625                   -10.322398329100887
0.08639999999999999       -9.90028641568901
0.086625                  -9.267118545571167
0.08677499999999999       -8.845006632159318
0.087                     -8.211838762041445
0.08714999999999998       -7.779258238500246
0.08737499999999998       -7.130387453188231
0.08752499999999999       -6.697806929646836
0.08775000000000001       -6.048936144334724
0.08789999999999999       -5.616355620793423
0.088125                  -4.967484835481459
0.08827499999999999       -4.534904311940087
0.0885                    -3.88603352662812
0.08864999999999999       -3.4725162245928805
0.088875                  -2.8522402715400506
0.08902499999999998       -2.438722969504914
0.08925                   -1.8184470164520559
0.08940000000000001       -1.4049297144168067
0.08962499999999998       -0.7846537613640756
0.08977499999999998       -0.37113645932890127
0.09                      0.2491394937239545
0.09015                   0.6183619240879767
0.090375                  1.172195569633994
0.090525                  1.5414179999979714
0.09075                   2.0952516455439913
0.0909                    2.464474075907925
0.09112500000000001       3.018307721453932
0.091275                  3.3875301518179053
0.0915                    3.9413637973638913
0.09165000000000001       4.2465758553827255
0.09187500000000001       4.704393942410955
0.092025                  5.00960600042973
0.09224999999999998       5.467424087457927
0.0924                    5.772636145476721
0.09262499999999999       6.230454232504892
0.092775                  6.535666290523738
0.09299999999999999       6.993484377551877
0.09314999999999998       7.221214435917596
0.09337499999999999       7.562809523466067
0.09352499999999998       7.790539581831724
0.09375                   8.132134669380243
0.09390000000000001       8.35986472774594
0.09412500000000003       8.701459815294436
0.09427499999999998       8.929189873660027
0.0945                    9.270784961208543
0.09464999999999998       9.414047246010487
0.09487499999999997       9.628940673213378
0.09502499999999998       9.772202958015338
0.09525                   9.98709638521826
0.09539999999999998       10.130358670020154
0.095625                  10.34525209722307
0.09577499999999999       10.48851438202501
0.096                     10.703407809227937
0.09615000000000001       10.761492827159179
0.09637500000000002       10.848620354056038
0.096525                  10.906705371987274
0.09674999999999999       10.993832898884127
0.0969                    11.051917916815377
0.09712499999999999       11.139045443712225
0.09727500000000001       11.197130461643473
0.09749999999999999       11.284257988540334
0.09764999999999999       11.262131765140325
0.097875                  11.228942430040306
0.09802500000000001       11.206816206640294
0.09825                   11.173626871540275
0.09839999999999999       11.151500648140265
0.098625                  11.118311313040246
0.09877500000000002       11.096185089640235
0.099                     11.062995754540218
0.09915                   10.9703877500478
0.09937500000000002       10.831475743309168
0.099525                  10.73886773881676
0.09975                   10.599955732078126
0.0999                    10.507347727585705
0.100125                  10.368435720847078
0.100275                  10.275827716354662
0.10050000000000002       10.136915709616025
0.10065                   9.987187516889017
0.10087499999999999       9.762595227798487
0.101025                  9.61286703507147
0.10125000000000002       9.388274745980896
0.1014                    9.238546553253894
0.101625                  9.013954264163372
0.101775                  8.86422607143635
0.102                     8.639633782345818
0.10214999999999998       8.448525628852195
0.10237499999999997       8.161863398611793
0.10252499999999998       7.970755245118205
0.10275                   7.684093014877759
0.10289999999999998       7.492984861384184
0.103125                  7.206322631143747
0.10327499999999999       7.015214477650126
0.1035                    6.728552247409747
0.10364999999999999       6.512902352181755
0.10387499999999998       6.189427509339796
0.10402499999999999       5.973777614111814
0.10424999999999998       5.650302771269822
0.1044                    5.434652876041813
0.10462499999999998       5.111178033199872
0.10477500000000001       4.895528137971841
0.105                     4.57205329512997
0.10514999999999998       4.348577112050009
0.10537499999999998       4.013362837430114
0.10552499999999997       3.78988665435027
0.10574999999999998       3.4546723797303858
0.10590000000000001       3.231196196650487
0.106125                  2.8959819220306358
0.10627499999999998       2.6725057389507527
0.1065                    2.337291464330901
0.10665000000000002       2.1214949265640373
0.106875                  1.7978001199138611
0.107025                  1.5820035821469831
0.10724999999999997       1.2583087754968179
0.1074                    1.0425122377299652
0.107625                  0.7188174310797347
0.107775                  0.5030208933129197
0.108                     0.17932608666266783
0.10815                   -0.0153894918260974
0.10837500000000001       -0.3074628595593579
0.10852499999999997       -0.5021784380480976
0.10875000000000001       -0.7942518057813719
0.1089                    -0.9889673842701642
0.10912500000000001       -1.2810407520034006
0.109275                  -1.4757563304922108
0.10949999999999999       -1.76782969822538
0.10964999999999998       -1.9308319613807532
0.109875                  -2.1753353561138096
0.11002499999999998       -2.3383376192691743
0.11024999999999999       -2.5828410140022497
0.11039999999999998       -2.7458432771575905
0.110625                  -2.990346671890651
0.11077500000000001       -3.1533489350460533
0.111                     -3.3978523297790986
0.11114999999999998       -3.521691566989052
0.11137499999999997       -3.7074504228040714
0.11152499999999999       -3.831289660014029
0.11174999999999997       -4.017048515829038
0.1119                    -4.140887753039046
0.112125                  -4.326646608854038
0.112275                  -4.4504858460640415
0.11249999999999999       -4.636244701879017
0.11265                   -4.716815530796944
0.11287499999999999       -4.837671774173833
0.113025                  -4.918242603091772
0.11325000000000002       -5.039098846468691
0.1134                    -5.119669675386606
0.11362499999999999       -5.240525918763493
0.113775                  -5.3210967476814295
0.11399999999999999       -5.441952991058338
0.11414999999999997       -5.478419396805243
0.114375                  -5.533119005425623
0.11452500000000002       -5.5695854111725405
0.11474999999999999       -5.624285019792911
0.11489999999999999       -5.660751425539817
0.11512499999999996       -5.715451034160187
0.11527499999999999       -5.751917439907104
0.11549999999999999       -5.806617048527483
0.11564999999999998       -5.8011301204721155
0.115875                  -5.792899728389063
0.11602500000000003       -5.787412800333695
0.11625                   -5.779182408250645
0.11639999999999999       -5.773695480195279
0.116625                  -5.765465088112228
0.11677499999999999       -5.7599781600568605
0.11699999999999999       -5.751747767973808
0.11714999999999998       -5.70899608343566
0.11737499999999998       -5.644868556628431
0.11752499999999998       -5.6021168720902805
0.11774999999999998       -5.537989345283039
0.11789999999999998       -5.495237660744889
0.11812499999999998       -5.431110133937653
0.11827499999999998       -5.3883584493995045
0.1185                    -5.324230922592262
0.11864999999999999       -5.250870413115077
0.118875                  -5.1408296488993
0.11902499999999999       -5.06746913942213
0.11925                   -4.9574283752063675
0.11939999999999999       -4.884067865729188
0.119625                  -4.77402710151342
0.11977499999999999       -4.70066659203624
0.12                      -4.590625827820461
0.12015                   -4.494639059112811
0.12037499999999998       -4.350658906051326
0.12052499999999997       -4.254672137343678
0.12074999999999998       -4.11069198428215
0.1209                    -4.0147052155744865
0.12112499999999998       -3.8707250625130034
0.121275                  -3.7747382938053358
0.12149999999999998       -3.6307581407438505
0.12165000000000001       -3.520792429425176
0.12187500000000002       -3.3558438624471076
0.12202500000000001       -3.245878151128426
0.12225                   -3.0809295841504314
0.12240000000000001       -2.9709638728317365
0.122625                  -2.8060153058537196
0.12277499999999998       -2.696049594535061
0.123                     -2.5311010275569887
0.12315                   -2.415831111603208
0.12337500000000001       -2.242926237672495
0.12352499999999998       -2.127656321718717
0.12375                   -1.9547514477880001
0.1239                    -1.8394815318341866