% Model:              thermoviscous.mph
% Version:            COMSOL 5.4.0.225
% Date:               Aug 2 2019, 19:47
% Dimension:          1
% Nodes:              961
% Expressions:        1
% Description:        Line graph
% cln1x                   Height
0                         393.04772030883555
1.4999999999999996E-4     387.7128141804823
3.75E-4                   379.7104549879523
5.250000000000001E-4      374.375548859599
7.5E-4                    366.373189667069
8.999999999999999E-4      361.03828353871575
0.0011250000000000001     353.03592434618577
0.001275                  347.7010182178325
0.0015                    339.6986590253025
0.00165                   332.6643697650888
0.0018750000000000004     322.11293587476814
0.0020250000000000003     315.0786466145544
0.0022500000000000003     304.5272127242338
0.0024000000000000002     297.49292346402007
0.0026250000000000006     286.9414895736994
0.002775                  279.90720031348565
0.003                     269.35576642316505
0.00315                   261.27962032890423
0.0033750000000000004     249.16540118751274
0.003525000000000001      241.08925509325192
0.00375                   228.97503595186055
0.0039                    220.8988898575997
0.004125                  208.78467071620827
0.004275                  200.70852462194745
0.0045                    188.5943054805561
0.004649999999999999      180.10970181397238
0.004874999999999999      167.38279631409657
0.005025                  158.89819264751276
0.0052499999999999995     146.1712871476371
0.0053999999999999986     137.6866834810534
0.005624999999999999      124.95977798117764
0.005775000000000001      116.47517431459373
0.006                     103.74826881471814
0.006150000000000001      95.45681140315465
0.0063750000000000005     83.01962528580952
0.006525                  74.72816787424597
0.00675                   62.290981756900926
0.006899999999999999      53.9995243453375
0.007125000000000002      41.56233822799221
0.007274999999999999      33.2708808164289
0.0075                    20.833694699083726
0.007650000000000001      13.260429730370907
0.007875000000000004      1.9005322773018722
0.008025000000000001      -5.672732691410651
0.00825                   -17.032630144479604
0.0084                    -24.60589511319228
0.008624999999999999      -35.96579256626119
0.008775                  -43.53905753497404
0.009                     -54.89895498804285
0.009149999999999997      -61.329896750495905
0.009374999999999998      -70.97630939417577
0.009525                  -77.4072511566291
0.009749999999999998      -87.05366380030867
0.0099                    -93.48460556276196
0.010124999999999999      -103.13101820644157
0.010275                  -109.56195996889473
0.010499999999999999      -119.20837261257458
0.01065                   -124.19187481553097
0.010875                  -131.66712811996578
0.011025                  -136.6506303229223
0.01125                   -144.12588362735696
0.011399999999999999      -149.1093858303135
0.011624999999999998      -156.58463913474816
0.011774999999999999      -161.56814133770462
0.012                     -169.04339464213948
0.012150000000000001      -172.40098202928849
0.012375                  -177.43736311001214
0.012525                  -180.7949504971611
0.012750000000000001      -185.83133157788478
0.0129                    -189.1889189650338
0.013125                  -194.22530004575736
0.013275000000000002      -197.58288743290646
0.0135                    -202.61926851363006
0.013649999999999997      -204.29782638132892
0.013874999999999998      -206.8156631828773
0.014025                  -208.49422105057621
0.014249999999999999      -211.0120578521246
0.014399999999999998      -212.6906157198234
0.014624999999999999      -215.2084525213718
0.014775000000000002      -216.8870103890707
0.015                     -219.40484719061902
0.01515                   -219.46717146328854
0.015375                  -219.56065787229278
0.015525                  -219.62298214496226
0.01575                   -219.7164685539665
0.015899999999999997      -219.778792826636
0.016125                  -219.87227923564024
0.016275                  -219.93460350830972
0.0165                    -220.028089917314
0.016649999999999998      -218.63680338511253
0.016875                  -216.5498735868103
0.017025000000000002      -215.15858705460886
0.01725                   -213.0716572563066
0.0174                    -211.6803707241051
0.017625000000000002      -209.59344092580287
0.017775                  -208.20215439360143
0.018                     -206.11522459529917
0.01815                   -203.5117823347803
0.018375                  -199.60661894400187
0.018525                  -197.0031766834829
0.01875                   -193.0980132927045
0.0189                    -190.49457103218546
0.019124999999999996      -186.58940764140712
0.019274999999999997      -183.98596538088827
0.019499999999999997      -180.08080199010965
0.01965                   -176.56147855840354
0.019875                  -171.2824934108441
0.020025                  -167.76316997913793
0.02025                   -162.48418483157863
0.0204                    -158.9648613998723
0.020624999999999998      -153.6858762523131
0.020775000000000002      -150.1665528206068
0.020999999999999998      -144.88756767304744
0.02115                   -140.77831542017591
0.021374999999999995      -134.61443704086872
0.021525000000000002      -130.505184787997
0.02175                   -124.34130640868972
0.0219                    -120.2320541558183
0.022125                  -114.06817577651104
0.022275000000000003      -109.95892352363933
0.0225                    -103.79504514433225
0.022649999999999997      -99.42699409876249
0.022875000000000003      -92.87491753040705
0.023025000000000007      -88.50686648483689
0.023249999999999996      -81.95478991648218
0.0234                    -77.5867388709121
0.023625                  -71.03466230255715
0.023775000000000004      -66.66661125698697
0.024                     -60.114534688632126
0.024149999999999998      -55.80167917103155
0.024374999999999997      -49.33239589463034
0.024525000000000005      -45.01954037702948
0.02475                   -38.55025710062843
0.0249                    -34.23740158302789
0.025125000000000005      -27.76811830662658
0.025275                  -23.45526278902593
0.0255                    -16.98597951262487
0.025649999999999996      -13.006293542922403
0.025875                  -7.036764588368595
0.026024999999999996      -3.057078618666057
0.02625                   2.91245033588791
0.0264                    6.892136305590532
0.026625000000000003      12.861665260144306
0.026775000000000004      16.84135122984692
0.027                     22.81088018440056
0.027149999999999997      26.230010300897643
0.027374999999999997      31.35870547564331
0.027525                  34.7778355921405
0.027749999999999997      39.90653076688614
0.027899999999999994      43.325660883383215
0.028124999999999997      48.454356058129015
0.02827499999999999       51.8734861746259
0.028499999999999998      57.00218134937166
0.028649999999999995      59.69369445501951
0.028874999999999998      63.730964113491396
0.029025                  66.42247721913895
0.029249999999999998      70.45974687761068
0.0294                    73.15125998325856
0.029625                  77.1885296417302
0.029775000000000003      79.88004274737801
0.03                      83.91731240584974
0.03015                   85.77923772175029
0.030375                  88.57212569560117
0.030525                  90.43405101150174
0.03075                   93.22693898535258
0.030899999999999997      95.08886430125314
0.031125                  97.88175227510412
0.031275                  99.74367759100465
0.0315                    102.53656556485552
0.03165                   103.53201520357449
0.031875                  105.0251896616528
0.032025                  106.02063930037176
0.03225                   107.5138137584501
0.0324                    108.509263397169
0.032625                  110.00243785524734
0.032775                  110.99788749396623
0.033                     112.49106195204465
0.03314999999999999       112.6439435321569
0.033375                  112.87326590232531
0.033525                  113.02614748243758
0.03375                   113.25546985260601
0.0339                    113.40835143271828
0.034125                  113.63767380288668
0.034275                  113.79055538299895
0.0345                    114.01987775316738
0.03465                   113.40705059912173
0.03487500000000001       112.48780986805326
0.03502500000000001       111.87498271400763
0.035250000000000004      110.95574198293914
0.0354                    110.34291482889351
0.035625000000000004      109.42367409782497
0.035775                  108.81084694377934
0.036                     107.89160621271087
0.036149999999999995      106.63236390750583
0.036375                  104.74350044969823
0.036524999999999995      103.48425814449308
0.03675                   101.59539468668548
0.0369                    100.33615238148037
0.037125                  98.44728892367272
0.03727499999999998       97.18804661846778
0.0375                    95.29918316066015
0.037649999999999996      93.54303001003267
0.037875000000000006      90.90880028409131
0.038024999999999996      89.15264713346407
0.03824999999999999       86.5184174075229
0.038400000000000004      84.76226425689542
0.03862499999999999       82.12803453095447
0.038775                  80.37188138032697
0.03899999999999999       77.73765165438593
0.039150000000000004      75.65135302697487
0.039375                  72.52190508585855
0.039525000000000005      70.43560645844764
0.03975                   67.30615851733126
0.039900000000000005      65.21985988992019
0.040124999999999994      62.09041194880411
0.04027499999999999       60.004113321393156
0.0405                    56.874665380276696
0.040650000000000006      54.62949855947963
0.040875                  51.261748328284156
0.041025                  49.01658150748736
0.041249999999999995      45.64883127629191
0.041400000000000006      43.40366445549479
0.041624999999999995      40.03591422429962
0.041775                  37.79074740350249
0.041999999999999996      34.422997172307326
0.04215                   32.18302058065966
0.042374999999999996      28.823055693188778
0.04252499999999999       26.583079101541408
0.04274999999999999       23.223114214070346
0.042899999999999994      20.983137622422884
0.043125                  17.62317273495187
0.043275                  15.383196143304339
0.0435                    12.023231255833414
0.043649999999999994      9.935238565667028
0.043875000000000004      6.803249530417143
0.044024999999999995      4.715256840250758
0.04425                   1.583267805000951
0.044399999999999995      -0.5047248851654325
0.044625                  -3.636713920415216
0.044774999999999995      -5.72470661058173
0.045                     -8.856695645831424
0.04515                   -10.671049574981417
0.045375                  -13.392580468706473
0.04552499999999999       -15.206934397856411
0.04575                   -17.92846529158141
0.04589999999999999       -19.742819220731285
0.04612499999999999       -22.464350114456263
0.04627499999999999       -24.278704043606197
0.04649999999999999       -27.000234937331296
0.04665                   -28.449842430902684
0.046875                  -30.624253671259538
0.047025                  -32.073861164830795
0.04725                   -34.2482724051877
0.047400000000000005      -35.69787989875904
0.047625                  -37.872291139115866
0.04777500000000001       -39.321898632687194
0.048                     -41.496309873044005
0.04815                   -42.5234517477783
0.048374999999999994      -44.06416455987985
0.048525                  -45.09130643461436
0.048749999999999995      -46.6320192467159
0.0489                    -47.659161121450346
0.049125                  -49.199873933552
0.049275000000000006      -50.2270158082864
0.0495                    -51.76772862038797
0.04964999999999999       -52.34842634930135
0.049875                  -53.219472942671466
0.05002500000000001       -53.80017067158485
0.05025000000000001       -54.671217264954976
0.0504                    -55.25191499386831
0.05062500000000001       -56.12296158723844
0.050775                  -56.70365931615176
0.051                     -57.57470590952188
0.05114999999999999       -57.71681824900933
0.051375000000000004      -57.929986758240524
0.051525                  -58.07209909772794
0.05175                   -58.285267606959124
0.051899999999999995      -58.427379946446564
0.05212499999999999       -58.64054845567773
0.05227500000000001       -58.7826607951652
0.0525                    -58.995829304396366
0.052649999999999995      -58.73525124228208
0.052875                  -58.34438414911062
0.053024999999999996      -58.08380608699632
0.05325                   -57.69293899382489
0.0534                    -57.43236093171058
0.053625000000000006      -57.04149383853914
0.053775                  -56.78091577642482
0.054                     -56.39004868325338
0.05415                   -55.785458467086684
0.05437500000000001       -54.8785731428365
0.054525                  -54.273982926669824
0.05474999999999999       -53.367097602419676
0.0549                    -52.76250738625296
0.05512499999999999       -51.85562206200283
0.055275000000000005      -51.25103184583602
0.0555                    -50.34414652158598
0.055650000000000005      -49.47079604090994
0.055875                  -48.16077031989602
0.056025000000000005      -47.28741983921994
0.056249999999999994      -45.97739411820607
0.05640000000000001       -45.10404363753006
0.05662500000000001       -43.794017916516154
0.05677499999999999       -42.92066743584022
0.056999999999999995      -41.61064171482636
0.057149999999999986      -40.55369734248484
0.057374999999999995      -38.968280783972546
0.057525                  -37.91133641163104
0.057749999999999996      -36.32591985311884
0.05789999999999999       -35.268975480777414
0.058125                  -33.68355892226502
0.058274999999999993      -32.626614549923666
0.058499999999999996      -31.041197991411565
0.058649999999999994      -29.889116246228937
0.058875                  -28.160993628455184
0.059024999999999994      -27.00891188327284
0.05925                   -25.28078926549913
0.05939999999999999       -24.12870752031668
0.059624999999999984      -22.40058490254298
0.05977499999999999       -21.24850315736055
0.06                      -19.520380539586597
0.06014999999999999       -18.358750678276728
0.06037499999999999       -16.616305886311356
0.060524999999999995      -15.454676025001229
0.06074999999999999       -13.71223123303597
0.060899999999999996      -12.550601371725838
0.061125                  -10.808156579760588
0.061274999999999996      -9.646526718450392
0.0615                    -7.904081926485203
0.06164999999999999       -6.810292287594633
0.061875000000000006      -5.169607829258169
0.062025000000000004      -4.075818190367616
0.06225                   -2.4351337320314768
0.0624                    -1.3413440931407195
0.062625                  0.2993403651954509
0.062775                  1.393130004086116
0.063                     3.0338144624224173
0.06315                   3.994820527933475
0.06337499999999999       5.436329626199888
0.063525                  6.397335691711066
0.06375                   7.83884478997767
0.0639                    8.799850855488685
0.06412500000000002       10.241359953755335
0.064275                  11.202366019266417
0.0645                    12.643875117532932
0.06465                   13.422586981471751
0.06487499999999999       14.590654777379683
0.065025                  15.369366641318534
0.06525                   16.5374344372266
0.0654                    17.316146301165283
0.065625                  18.484214097073497
0.065775                  19.26292596101216
0.066                     20.430993756920287
0.06615                   20.994998000335784
0.06637499999999999       21.841004365458847
0.066525                  22.40500860887433
0.06675                   23.25101497399758
0.0669                    23.815019217412996
0.067125                  24.66102558253617
0.067275                  25.225029825951626
0.0675                    26.071036191074857
0.06765                   26.405384863589077
0.06787500000000002       26.906907872360467
0.06802500000000002       27.24125654487467
0.06825                   27.742779553646038
0.0684                    28.077128226160237
0.068625                  28.57865123493162
0.068775                  28.912999907445855
0.069                     29.414522916217255
0.06914999999999999       29.520915058599925
0.069375                  29.680503272173997
0.06952499999999999       29.786895414556685
0.06974999999999999       29.94648362813076
0.0699                    30.05287577051347
0.07012499999999999       30.212463984087528
0.07027499999999999       30.318856126470223
0.0705                    30.478444340044295
0.07064999999999999       30.373397020737006
0.07087500000000001       30.215826041776033
0.071025                  30.110778722468723
0.07125                   29.953207743507768
0.07139999999999999       29.84816042420047
0.071625                  29.690589445239517
0.07177499999999999       29.58554212593222
0.072                     29.427971146971263
0.07214999999999999       29.140204544485748
0.072375                  28.70855464075753
0.072525                  28.42078803827201
0.07275                   27.98913813454378
0.07289999999999999       27.701371532058282
0.073125                  27.269721628330036
0.07327499999999999       26.98195502584453
0.0735                    26.550305122116292
0.07365                   26.117594717977827
0.073875                  25.468529111770167
0.074025                  25.035818707631687
0.07425                   24.386753101424052
0.07439999999999998       23.95404269728565
0.074625                  23.304977091077955
0.074775                  22.872266686939515
0.075                     22.223201080731798
0.07515                   21.68895897238142
0.075375                  20.88759580985566
0.07552500000000001       20.35335370150519
0.07575000000000001       19.551990538979513
0.0759                    19.017748430629073
0.076125                  18.216385268103405
0.076275                  17.682143159753004
0.07649999999999998       16.880779997227418
0.07664999999999998       16.290618129303812
0.07687500000000001       15.40537532741827
0.07702500000000001       14.815213459494744
0.07725                   13.929970657609305
0.07740000000000001       13.339808789685636
0.07762499999999999       12.454565987800354
0.07777500000000001       11.864404119876681
0.07799999999999999       10.979161317991451
0.07815                   10.377664542380458
0.078375                  9.475419378964125
0.078525                  8.873922603353208
0.07875                   7.971677439936843
0.0789                    7.370180664325993
0.079125                  6.467935500909673
0.079275                  5.866438725298748
0.0795                    4.964193561882339
0.07965                   4.392093125932409
0.079875                  3.533942472007432
0.08002500000000001       2.9618420360573507
0.08025                   2.1036913821323675
0.0804                    1.5315909461823618
0.080625                  0.6734402922574485
0.08077500000000001       0.10133985630734639
0.081                     -0.7568107976175812
0.08115                   -1.2649187337123065
0.08137499999999999       -2.0270806378543607
0.08152500000000001       -2.535188573949132
0.08175000000000002       -3.2973504780911833
0.0819                    -3.8054584141858623
0.082125                  -4.567620318327946
0.08227499999999997       -5.075728254422538
0.08249999999999999       -5.837890158564657
0.08265                   -6.255187138447755
0.082875                  -6.881132608272356
0.08302500000000002       -7.298429588155457
0.08325                   -7.924375057980063
0.08339999999999999       -8.34167203786306
0.083625                  -8.967617507687697
0.08377500000000002       -9.384914487570859
0.08399999999999999       -10.010859957395356
0.08415                   -10.319266842098127
0.08437499999999999       -10.781877169152176
0.08452500000000002       -11.090284053854882
0.08475                   -11.552894380908931
0.0849                    -11.861301265611633
0.085125                  -12.323911592665711
0.085275                  -12.632318477368406
0.0855                    -13.094928804422516
0.08565                   -13.285393383563052
0.085875                  -13.571090252273867
0.08602499999999999       -13.761554831414415
0.08625                   -14.047251700125228
0.08639999999999999       -14.237716279265776
0.086625                  -14.523413147976607
0.08677499999999999       -14.71387772711714
0.087                     -14.99957459582798
0.08714999999999998       -15.071735805962376
0.08737499999999998       -15.179977621164008
0.08752499999999999       -15.252138831298437
0.08775000000000001       -15.360380646500081
0.08789999999999999       -15.432541856634495
0.088125                  -15.540783671836115
0.08827499999999999       -15.612944881970538
0.0885                    -15.721186697172175
0.08864999999999999       -15.68250183836027
0.088875                  -15.62447455014242
0.08902499999999998       -15.585789691330529
0.08925                   -15.527762403112671
0.08940000000000001       -15.489077544300768
0.08962499999999998       -15.431050256082925
0.08977499999999998       -15.392365397271025
0.09                      -15.334338109053173
0.09015                   -15.198785859064605
0.090375                  -14.99545748408173
0.090525                  -14.85990523409316
0.09075                   -14.656576859110283
0.0909                    -14.521024609121731
0.09112500000000001       -14.31769623413886
0.091275                  -14.18214398415029
0.0915                    -13.978815609167428
0.09165000000000001       -13.765303899863248
0.09187500000000001       -13.445036335906977
0.092025                  -13.231524626602829
0.09224999999999998       -12.91125706264658
0.0924                    -12.697745353342418
0.09262499999999999       -12.377477789386187
0.092775                  -12.16396608008199
0.09299999999999999       -11.84369851612578
0.09314999999999998       -11.574312434926584
0.09337499999999999       -11.17023331312786
0.09352499999999998       -10.900847231928699
0.09375                   -10.496768110129919
0.09390000000000001       -10.227382028930709
0.09412500000000003       -9.823302907131952
0.09427499999999998       -9.55391682593287
0.0945                    -9.14983770413412
0.09464999999999998       -8.848059162774613
0.09487499999999997       -8.39539135073542
0.09502499999999998       -8.093612809375886
0.09525                   -7.640944997336621
0.09539999999999998       -7.339166455977225
0.095625                  -6.886498643937977
0.09577499999999999       -6.5847201025784905
0.096                     -6.132052290539242
0.09615000000000001       -5.821071470429254
0.09637500000000002       -5.354600240264278
0.096525                  -5.043619420154352
0.09674999999999999       -4.577148189989426
0.0969                    -4.2661673698794145
0.09712499999999999       -3.799696139714501
0.09727500000000001       -3.4887153196044967
0.09749999999999999       -3.0222440894395404
0.09764999999999999       -2.7234642570525436
0.097875                  -2.2752945084720375
0.09802500000000001       -1.976514676084991
0.09825                   -1.528344927504481
0.09839999999999999       -1.2295650951174855
0.098625                  -0.7813953465369562
0.09877500000000002       -0.4826155141499256
0.099                     -0.03444576556941966
0.09915                   0.23374014700157048
0.09937500000000002       0.636019015858063
0.099525                  0.9042049284290138
0.09975                   1.3064837972855043
0.0999                    1.5746697098564906
0.100125                  1.9769485787129555
0.100275                  2.245134491283937
0.10050000000000002       2.647413360140433
0.10065                   2.870521975838907
0.10087499999999999       3.205184899386647
0.101025                  3.4282935150851355
0.10125000000000002       3.7629564386329406
0.1014                    3.986065054331405
0.101625                  4.320727977879134
0.101775                  4.5438365935776295
0.102                     4.878499517125371
0.10214999999999998       5.046506334345827
0.10237499999999997       5.298516560176466
0.10252499999999998       5.466523377396878
0.10275                   5.7185336032275496
0.10289999999999998       5.8865404204479495
0.103125                  6.138550646278615
0.10327499999999999       6.306557463499056
0.1035                    6.558567689329689
0.10364999999999999       6.666106465702939
0.10387499999999998       6.8274146302627985
0.10402499999999999       6.934953406636042
0.10424999999999998       7.096261571195917
0.1044                    7.203800347569176
0.10462499999999998       7.3651085121290265
0.10477500000000001       7.472647288502296
0.105                     7.633955453062134
0.10514999999999998       7.6801906362186205
0.10537499999999998       7.749543410953342
0.10552499999999997       7.7957785941098034
0.10574999999999998       7.865131368844522
0.10590000000000001       7.911366552000995
0.106125                  7.9807193267357075
0.10627499999999998       8.026954509892176
0.1065                    8.0963072846269
0.10665000000000002       8.084521607220982
0.106875                  8.066843091112109
0.107025                  8.055057413706187
0.10724999999999997       8.037378897597318
0.1074                    8.0255932201914
0.107625                  8.007914704082525
0.107775                  7.996129026676607
0.108                     7.978450510567731
0.10815                   7.915404256636227
0.10837500000000001       7.820834875738934
0.10852499999999997       7.757788621807438
0.10875000000000001       7.663219240910141
0.1089                    7.600172986978627
0.10912500000000001       7.505603606081343
0.109275                  7.442557352149823
0.10949999999999999       7.347987971252561
0.10964999999999998       7.243115609776104
0.109875                  7.085807067561401
0.11002499999999998       6.980934706084935
0.11024999999999999       6.823626163870218
0.11039999999999998       6.718753802393768
0.110625                  6.561445260179061
0.11077500000000001       6.456572898702572
0.111                     6.299264356487875
0.11114999999999998       6.163778157964297
0.11137499999999997       5.960548860178838
0.11152499999999999       5.825062661655256
0.11174999999999997       5.621833363869808
0.1119                    5.48634716534617
0.112125                  5.28311786756074
0.112275                  5.147631669037109
0.11249999999999999       4.944402371251699
0.11265                   4.790371559857394
0.11287499999999999       4.559325342765945
0.113025                  4.405294531371622
0.11325000000000002       4.174248314280115
0.1134                    4.0202175028858385
0.11362499999999999       3.789171285794391
0.113775                  3.63514047440007
0.11399999999999999       3.4040942573085777
0.11414999999999997       3.2435627887880387
0.114375                  3.00276558600713
0.11452500000000002       2.842234117486531
0.11474999999999999       2.6014369147056597
0.11489999999999999       2.4409054461851216
0.11512499999999996       2.200108243404256
0.11527499999999999       2.039576774883665
0.11549999999999999       1.7987795721028006
0.11564999999999998       1.6429765789619937
0.115875                  1.409272089250728
0.11602500000000003       1.2534690961098762
0.11625                   1.0197646063987278
0.11639999999999999       0.8639616132579123
0.116625                  0.6302571235467072
0.11677499999999999       0.47445413040589773
0.11699999999999999       0.24074964069466206
0.11714999999999998       0.09943491665963586
0.11737499999999998       -0.11253716939293243
0.11752499999999998       -0.2538518934279726
0.11774999999999998       -0.4658239794805774
0.11789999999999998       -0.6071387035156153
0.11812499999999998       -0.8191107895682054
0.11827499999999998       -0.9604255136032386
0.1185                    -1.1723975996558484
0.11864999999999999       -1.2914239567079004
0.118875                  -1.469963492285981
0.11902499999999999       -1.5889898493380112
0.11925                   -1.7675293849160694
0.11939999999999999       -1.8865557419681118
0.119625                  -2.0650952775461753
0.11977499999999999       -2.184121634598222
0.12                      -2.362661170176303
0.12015                   -2.453869638518668
0.12037499999999998       -2.590682341032229
0.12052499999999997       -2.6818908093745932
0.12074999999999998       -2.818703511888192
0.1209                    -2.909911980230573
0.12112499999999998       -3.0467246827441308
0.121275                  -3.137933151086515
0.12149999999999998       -3.2747458536000744
0.12165000000000001       -3.33500695770294
0.12187500000000002       -3.425398613857262
0.12202500000000001       -3.485659717960126
0.12225                   -3.5760513741144067
0.12240000000000001       -3.636312478217278
0.122625                  -3.726704134371571
0.12277499999999998       -3.786965238474423
0.123                     -3.8773568946287416
0.12315                   -3.9058994627289185
0.12337500000000001       -3.948713314879194
0.12352499999999998       -3.97725588297937
0.12375                   -4.020069735129646
0.1239                    -4.048612303229832