% Model:              thermoviscous.mph
% Version:            COMSOL 5.4.0.225
% Date:               Aug 2 2019, 19:51
% Dimension:          1
% Nodes:              961
% Expressions:        1
% Description:        Line graph
% cln1x                   Height
0                         0
1.4999999999999996E-4     -0.025787868096017044
3.75E-4                   -0.06381604836433791
5.250000000000001E-4      -0.08873242062608201
7.5E-4                    -0.1254533571429934
8.999999999999999E-4      -0.1494982335704645
0.0011250000000000001     -0.1849119263359665
0.001275                  -0.2080853069291646
0.0015                    -0.24219175594325712
0.00165                   -0.2643791955729182
0.0018750000000000004     -0.29679969922292676
0.0020250000000000003     -0.3178395977932773
0.0022500000000000003     -0.3485387898543202
0.0024000000000000002     -0.3684311473653599
0.0026250000000000006     -0.39740902783743703
0.002775                  -0.4161538442891664
0.003                     -0.4434104131722774
0.00315                   -0.4609290846727092
0.0033750000000000004     -0.486212384426411
0.003525000000000001      -0.5024047792642488
0.00375                   -0.5256986640240597
0.0039                    -0.5405647821993034
0.004125                  -0.5618692519652236
0.004275                  -0.5754090934778733
0.0045                    -0.5947241482499022
0.004649999999999999      -0.6068982288170666
0.004874999999999999      -0.6241111604713926
0.005025                  -0.6348876554433289
0.0052499999999999995     -0.6500042087048125
0.0053999999999999986     -0.6593831180815207
0.005624999999999999      -0.6724032929501624
0.005775000000000001      -0.6803846167316427
0.006                     -0.6913084132074421
0.006150000000000001      -0.6978898702994665
0.0063750000000000005     -0.7067344956915007
0.006525                  -0.7119458724555217
0.00675                   -0.7187353773555493
0.006899999999999999      -0.7225766737915659
0.007125000000000002      -0.7273110581995877
0.007274999999999999      -0.7297822743075998
0.0075                    -0.7324615382236151
0.007650000000000001      -0.7335940349985528
0.007875000000000004      -0.7343513982903542
0.008025000000000001      -0.7342287192378177
0.00825                   -0.7331033187884075
0.0084                    -0.7317254639083965
0.008624999999999999      -0.7287172997177748
0.008775                  -0.7260842690102897
0.009                     -0.7211933410784563
0.009149999999999997      -0.7173645711041384
0.009374999999999998      -0.7108192157386373
0.009525                  -0.7059208452256202
0.009749999999999998      -0.6977710890520711
0.0099                    -0.6918031180003555
0.010124999999999999      -0.6820489610187582
0.010275                  -0.6750113894283442
0.010499999999999999      -0.6636528316386985
0.01065                   -0.6556263750804763
0.010875                  -0.6429620833358215
0.011025                  -0.634102817567837
0.01125                   -0.620189312008539
0.011399999999999999      -0.6104972370307927
0.011624999999999998      -0.5953345176568516
0.011774999999999999      -0.5848096334693433
0.012                     -0.5683977002807594
0.012150000000000001      -0.5571344952196777
0.012375                  -0.5398154349533419
0.012525                  -0.5279865596593086
0.012750000000000001      -0.5098189940435451
0.0129                    -0.4974244485165601
0.013125                  -0.4784083775513693
0.013275000000000002      -0.46544816179143234
0.0135                    -0.44558358547681354
0.013649999999999997      -0.4321583257394207
0.013874999999999998      -0.4118037748848388
0.014025                  -0.39808963348278964
0.014249999999999999      -0.37730176013122363
0.014399999999999998      -0.3632987370645189
0.014624999999999999      -0.34207754121596895
0.014775000000000002      -0.3277856364846077
0.015                     -0.306131118139074
0.01515                   -0.2916498441495523
0.015375                  -0.26991169959295114
0.015525                  -0.2554087808403373
0.01575                   -0.23363816913909888
0.015899999999999997      -0.2191136056233936
0.016125                  -0.19731052677751643
0.016275                  -0.18276431849871896
0.0165                    -0.16092877250820423
0.016649999999999998      -0.14645288777681573
0.016875                  -0.12490364750902806
0.017025000000000002      -0.11064721188336767
0.01725                   -0.08942714527417249
0.0174                    -0.0753901587542399
0.017625000000000002      -0.054499265803636704
0.017775                  -0.04068172838943229
0.018                     -0.020120009097421114
0.01815                   -0.006601074205660563
0.018375                  0.013361398661998014
0.018525                  0.026459094260448523
0.01875                   0.045789708188141515
0.0189                    0.05846616449328207
0.019124999999999996      0.07716491948100919
0.019274999999999997      0.08942013649283874
0.019499999999999997      0.10748703254060166
0.01965                   0.11925855594380981
0.019875                  0.13648496012069491
0.020025                  0.14768197561999927
0.02025                   0.164046617941028
0.0204                    0.17466912553642897
0.020624999999999998      0.1901720060016017
0.020775000000000002      0.20022000569309872
0.020999999999999998      0.21486112430241602
0.02115                   0.22429124607060405
0.021374999999999995      0.23793079426129574
0.021525000000000002      0.2466867367473639
0.02175                   0.2593150160148749
0.0219                    0.26739677921882193
0.022125                  0.2790137895631523
0.022275000000000003      0.2864213734849794
0.0225                    0.2970271149061289
0.022649999999999997      0.3037371177484912
0.022875000000000003      0.31326270207463147
0.023025000000000007      0.3192534783337884
0.023249999999999996      0.32770022278511857
0.0234                    0.33297177246106935
0.023625                  0.34033967703759077
0.023775000000000004      0.34489200013033555
0.024                     0.3511810648320478
0.024149999999999998      0.35501020714996057
0.024374999999999997      0.3602196793877593
0.024525000000000005      0.3633365000535782
0.02475                   0.36747748981323575
0.0249                    0.36988198882696033
0.025125000000000005      0.37295449610847675
0.025275                  0.37464667347010744
0.0255                    0.3766506982734827
0.025649999999999996      0.37764430136519755
0.025875                  0.378640247687224
0.026024999999999996      0.37897457302487775
0.02625                   0.3789816027158127
0.0264                    0.3786566502994053
0.026625000000000003      0.3776747633592485
0.026775000000000004      0.37669053318878
0.027                     0.3747197296175315
0.027149999999999997      0.3731049404498382
0.027374999999999997      0.37025649932160004
0.027525                  0.3680733669849754
0.027749999999999997      0.3643724111033401
0.027899999999999994      0.36162093559778447
0.028124999999999997      0.3570674649627524
0.02827499999999999       0.35374764628826566
0.028499999999999998      0.3483416608998366
0.028649999999999995      0.34449375591514475
0.028874999999999998      0.33838484281494013
0.029025                  0.3340875303326936
0.029249999999999998      0.32730450598615674
0.0294                    0.32255778600635454
0.029625                  0.3151006504134851
0.029775000000000003      0.3099045229361279
0.03                      0.30177327609692567
0.03015                   0.29617569807674005
0.030375                  0.28754444463095313
0.030525                  0.2816336847234232
0.03075                   0.2725326584466203
0.030899999999999997      0.2663087166517462
0.031125                  0.2567379175439264
0.031275                  0.25020079386170824
0.0315                    0.2401602219228729
0.03165                   0.23336162485070522
0.031875                  0.22303592190292212
0.032025                  0.2160669150447114
0.03225                   0.20548559741786332
0.0324                    0.19834618077360958
0.032625                  0.18750924846769634
0.032775                  0.18019942203739914
0.033                     0.16910687505242056
0.03314999999999999       0.16167831088542908
0.033375                  0.15051209689588943
0.033525                  0.14305237574349666
0.03375                   0.13183942627585699
0.0339                    0.1243485481380635
0.034125                  0.11308886319232242
0.034275                  0.10556682806912819
0.0345                    0.09426040764528604
0.03465                   0.08675545629310025
0.03487500000000001       0.07556986466138291
0.03502500000000001       0.06816069383794557
0.035250000000000004      0.05711877299935031
0.0354                    0.04980538270466139
0.035625000000000004      0.038907132659188264
0.035775                  0.03168952289324764
0.036                     0.020934943640897482
0.036149999999999995      0.013855104901072142
0.036375                  0.0033878398850929626
0.036524999999999995      -0.003488674729721044
0.03675                   -0.013650953558182355
0.0369                    -0.020324144047984098
0.037125                  -0.03018143668892769
0.03727499999999998       -0.03665130305371672
0.0375                    -0.046203609507142654
0.037649999999999996      -0.05243652858973154
0.037875000000000006      -0.06157110649857201
0.038024999999999996      -0.06751762462776911
0.03824999999999999       -0.07622260110652254
0.038400000000000004      -0.08188271828232943
0.03862499999999999       -0.09015809333099575
0.038775                  -0.09553180955341171
0.03899999999999999       -0.1033775831719919
0.039150000000000004      -0.10844099097688775
0.039375                  -0.11577954966348854
0.039525000000000005      -0.12050088677406111
0.03975                   -0.1273263394191776
0.039900000000000005      -0.13170560583542743
0.040124999999999994      -0.13801795243905893
0.04027499999999999       -0.1420551481609856
0.0405                    -0.14785438872313336
0.040650000000000006      -0.1515358922174738
0.040875                  -0.1567810232308787
0.041025                  -0.16009302775441128
0.041249999999999995      -0.1647839103116048
0.041400000000000006      -0.16772641586433032
0.041624999999999995      -0.17186304996531238
0.041775                  -0.17443605654723046
0.041999999999999996      -0.17801844219200127
0.04215                   -0.18021844908353574
0.042374999999999996      -0.18324111317833516
0.04252499999999999       -0.18507132507986726
0.04274999999999999       -0.18753929668966374
0.042899999999999994      -0.1889997136011938
0.043125                  -0.19091299272598722
0.043275                  -0.19200361464751523
0.0435                    -0.19336220128730552
0.043649999999999994      -0.19408883455619733
0.043875000000000004      -0.1949194808859014
0.044024999999999995      -0.1953003760566149
0.04425                   -0.19561241523905126
0.044399999999999995      -0.19564757231158642
0.044625                  -0.1954410043467553
0.044774999999999995      -0.19513042332111202
0.045                     -0.19440524820901336
0.04515                   -0.1937627005162105
0.045375                  -0.1925728119569193
0.04552499999999999       -0.19162884157066737
0.04575                   -0.18998681897120265
0.04589999999999999       -0.18874142589150172
0.04612499999999999       -0.18664726925186348
0.04627499999999999       -0.18510045347871346
0.04649999999999999       -0.1825541627989015
0.04665                   -0.1807259334384614
0.046875                  -0.17780219944306722
0.047025                  -0.175732116809648
0.04725                   -0.1724456029047847
0.047400000000000005      -0.17013366699838617
0.047625                  -0.16648437318405418
0.04777500000000001       -0.16393058400467633
0.048                     -0.1599185102808754
0.04815                   -0.1571471551143469
0.048374999999999994      -0.1528607313195351
0.048525                  -0.14991685475964756
0.048749999999999995      -0.14537164887479812
0.0489                    -0.14225525092155222
0.049125                  -0.13745126294666468
0.049275000000000006      -0.13416234360006052
0.0495                    -0.12909957353513563
0.04964999999999999       -0.12566465950913366
0.049875                  -0.12043804279441271
0.05002500000000001       -0.1169041345341203
0.05025000000000001       -0.11152902646796381
0.0504                    -0.10789612397338152
0.05062500000000001       -0.10237252455578928
0.050775                  -0.09864062782691677
0.051                     -0.09296853705788936
0.05114999999999999       -0.0891644364988196
0.051375000000000004      -0.0834383801878165
0.051525                  -0.07960773899888371
0.05175                   -0.0738418717430861
0.051899999999999995      -0.06998468992428954
0.05212499999999999       -0.06417901172369679
0.05227500000000001       -0.06029528927503594
0.0525                    -0.05444980012964789
0.052649999999999995      -0.05056480187016485
0.052875                  -0.04476744300638361
0.053024999999999996      -0.0409226294474922
0.05325                   -0.03518554763459894
0.0534                    -0.031380918776299095
0.053625000000000006      -0.02570411401429313
0.053775                  -0.02193966985658485
0.054                     -0.016323142145466717
0.05415                   -0.01262111756074266
0.05437500000000001       -0.007141118651205282
0.054525                  -0.003536478023213848
0.05474999999999999       0.001797444951224559
0.0549                    0.005304701622483746
0.05512499999999999       0.01049254866182348
0.055275000000000005      0.01390242137635073
0.0555                    0.01894419248059131
0.055650000000000005      0.02223862620502021
0.055875                  0.027073568551712328
0.056025000000000005      0.030225724622873696
0.056249999999999994      0.034847250489664465
0.05640000000000001       0.03785712890755821
0.05662500000000001       0.04226523829444788
0.05677499999999999       0.04513283905907393
0.056999999999999995      0.04932753196606234
0.057149999999999986      0.052039736239958445
0.057374999999999995      0.05597815585826085
0.057525                  0.05851717774210119
0.057749999999999996      0.062195823775319806
0.05789999999999999       0.06456166326910423
0.058125                  0.06798053571723962
0.058274999999999993      0.07017319282096822
0.058499999999999996      0.0733322916840194
0.058649999999999994      0.07534393742494003
0.058875                  0.07821927465568691
0.059024999999999994      0.08004141188909564
0.05925                   0.08263248635857542
0.05939999999999999       0.0842651150844729
0.059624999999999984      0.08657192679268569
0.05977499999999999       0.08801504701107182
0.06                      0.09003759595801784
0.06014999999999999       0.09128863781898576
0.06037499999999999       0.09302143607616062
0.060524999999999995      0.0940807918914254
0.06074999999999999       0.09552606108004494
0.060899999999999996      0.09639373084960619
0.061125                  0.09755147096967053
0.061274999999999996      0.09822745469352835
0.0615                    0.09909766574503744
0.06164999999999999       0.09958427921928376
0.061875000000000006      0.10017842597602584
0.062025000000000004      0.10048400817743537
0.06225                   0.10080660802492208
0.0624                    0.1009311589534948
0.062625                  0.10098221189172624
0.062775                  0.10092573154746212
0.063                     0.10070523757643829
0.06315                   0.10047427110881801
0.06337499999999999       0.10000814488809724
0.063525                  0.09961760972808974
0.06375                   0.09891213046878809
0.0639                    0.09836202661639343
0.06412500000000002       0.09741719431851091
0.064275                  0.09670752177372902
0.0645                    0.09552333643726581
0.06465                   0.09466400293439726
0.06487499999999999       0.09327763405866829
0.065025                  0.0922884757272311
0.06525                   0.09070736960864915
0.0654                    0.0895883864486436
0.065625                  0.0878125430872086
0.065775                  0.08656373509863452
0.066                     0.08459315449434683
0.06615                   0.08322679347296921
0.06637499999999999       0.08110629424249398
0.066525                  0.07964532295657076
0.06675                   0.07738290832927648
0.0669                    0.07582732677880778
0.067125                  0.07342299675469527
0.067275                  0.07177280493968075
0.0675                    0.06922655951874948
0.06765                   0.06749534228485632
0.06787500000000002       0.06485591232317217
0.06802500000000002       0.06306788960815359
0.06825                   0.06034325142478109
0.0684                    0.05849842322863698
0.068625                  0.05568857682357614
0.068775                  0.05378694314630626
0.069                     0.050891888519556915
0.06914999999999999       0.04894731829911493
0.069375                  0.0460160898261003
0.06952499999999999       0.04405235541585734
0.06974999999999999       0.041092380658141664
0.0699                    0.039109482058097514
0.07012499999999999       0.03612076101568106
0.07027499999999999       0.034118698225836554
0.0705                    0.031101230898718753
0.07064999999999999       0.029093215447886983
0.07087500000000001       0.026093083303498948
0.071025                  0.024100922561814054
0.07125                   0.021124572481147394
0.07139999999999999       0.019148266448610094
0.071625                  0.01619569843166449
0.07177499999999999       0.014235247108274545
0.072                     0.011306461155049869
0.07214999999999999       0.00937361751873132
0.072375                  0.0065090158970793925
0.072525                  0.004622390704528189
0.07275                   0.001827116748527016
0.07289999999999999       -1.3290000256836764E-5
0.073125                  -0.0027392362906071693
0.07327499999999999       -0.00453342459562386
0.0735                    -0.007190043220323335
0.07365                   -0.008928341222180787
0.073875                  -0.01148298063943619
0.074025                  -0.013150868527252937
0.07425                   -0.015599892773447241
0.07439999999999998       -0.017197370547223007
0.074625                  -0.019540779622356518
0.074775                  -0.021067847282091774
0.075                     -0.02330564118616435
0.07515                   -0.024755129457387056
0.075375                  -0.026863755428406043
0.07552500000000001       -0.028225768451874845
0.07575000000000001       -0.03020318155126234
0.0759                    -0.031477719326976884
0.076125                  -0.0333239195547331
0.076275                  -0.03451098208269339
0.07649999999999998       -0.03622596943881821
0.07664999999999998       -0.03732110341817657
0.07687500000000001       -0.038891034465988066
0.07702500000000001       -0.03988914188371122
0.07725                   -0.04131353308906989
0.07740000000000001       -0.0422146139451582
0.07762499999999999       -0.043493465308064014
0.07777500000000001       -0.04429751960251724
0.07799999999999999       -0.045430831122970416
0.07815                   -0.046136134268623376
0.078375                  -0.04711968079273843
0.078525                  -0.047725773012572345
0.07875                   -0.04856050314795902
0.0789                    -0.04906738444197394
0.079125                  -0.04975329818863215
0.079275                  -0.05016096855682818
0.0795                    -0.050698065914758
0.07965                   -0.051007361434941945
0.079875                  -0.05140032126261653
0.08002500000000001       -0.05161497217933202
0.08025                   -0.051865965101803795
0.0804                    -0.05198597141505074
0.080625                  -0.052094997432319726
0.08077500000000001       -0.05212035914209813
0.081                     -0.052087418254164346
0.08115                   -0.05202121296795969
0.08137499999999999       -0.05185866181552356
0.08152500000000001       -0.051708132231813364
0.08175000000000002       -0.05141909463311892
0.0819                    -0.05118424075190318
0.082125                  -0.05076871670695041
0.08227499999999997       -0.05044953852822921
0.08249999999999999       -0.0499075280370181
0.08265                   -0.04950891105170922
0.082875                  -0.04885884381066221
0.08302500000000002       -0.048390704474575066
0.08325                   -0.04763635370736071
0.08339999999999999       -0.04709869202049545
0.083625                  -0.046240057727113676
0.08377500000000002       -0.045632873689469944
0.08399999999999999       -0.044669955869921014
0.08415                   -0.0439994350330123
0.08437499999999999       -0.042954897807202394
0.08452500000000002       -0.04223270234303106
0.08475                   -0.04111065317632709
0.0849                    -0.04033678308489307
0.085125                  -0.03913722197729495
0.085275                  -0.038311677258598256
0.0855                    -0.03703460421010596
0.08565                   -0.03616432952930959
0.085875                  -0.03483471560539888
0.08602499999999999       -0.033932171720980946
0.08625                   -0.032554153991637955
0.08639999999999999       -0.03161934090359852
0.086625                  -0.030192919368823175
0.08677499999999999       -0.029225837077162278
0.087                     -0.027751011736954573
0.08714999999999998       -0.026758828945815747
0.08737499999999998       -0.025260997427676554
0.08752499999999999       -0.02425607152796334
0.08775000000000001       -0.022739125346962995
0.08789999999999999       -0.02172145633867606
0.088125                  -0.020185395494815152
0.08827499999999999       -0.019154983377954102
0.0885                    -0.01759980787123229
0.08864999999999999       -0.016563550774023873
0.088875                  -0.015013370324483858
0.08902499999999998       -0.013982720155639077
0.08925                   -0.012440950098644049
0.08940000000000001       -0.011415906858162354
0.08962499999999998       -0.009882547193712695
0.08977499999999998       -0.008863110881594558
0.09                      -0.007338161609689647
0.09015                   -0.006330533981614728
0.090375                  -0.004835364009723787
0.090525                  -0.0038494316752775352
0.09075                   -0.002386804643829437
0.0909                    -0.0014225676030118633
0.09112500000000001       7.516487993354439E-6
0.091275                  9.5005823518247E-4
0.0915                    0.0023475993857447865
0.09165000000000001       0.0032632765277068334
0.09187500000000001       0.004610769403922458
0.092025                  0.005491749430247805
0.09224999999999998       0.006787196633008519
0.0924                    0.007633479543697385
0.09262499999999999       0.008876881073003218
0.092775                  0.009688466868055681
0.09299999999999999       0.010879822723906632
0.09314999999999998       0.011652808033500866
0.09337499999999999       0.012779229281400182
0.09352499999999998       0.013508138969005247
0.09375                   0.014568446783921175
0.09390000000000001       0.015253280849537339
0.09412500000000003       0.016247475231469653
0.09427499999999998       0.01688823367509648
0.0945                    0.017816314624045274
0.09464999999999998       0.01841048616470858
0.09487499999999997       0.019264552681487686
0.09502499999999998       0.01980913649653008
0.09525                   0.020588821424877852
0.09539999999999998       0.021083817514299042
0.095625                  0.021789120854215353
0.09577499999999999       0.02223452921801573
0.096                     0.022865450969500593
0.09615000000000001       0.023260173988683294
0.09637500000000002       0.023813806228750397
0.096525                  0.02415725952965714
0.09674999999999999       0.024633987192310337
0.0969                    0.02492617077494126
0.09712499999999999       0.025325993860180616
0.09727500000000001       0.02556690772453562
0.09749999999999999       0.025889826232361142
0.09764999999999999       0.026079712788973263
0.097875                  0.026327488075666945
0.09802500000000001       0.026467968567979772
0.09825                   0.026641634758224477
0.09839999999999999       0.02673270918623795
0.098625                  0.026832266280033688
0.09877500000000002       0.02687393464374785
0.099                     0.0268993826410946
0.09915                   0.02689307320643363
0.09937500000000002       0.026850245236541524
0.099525                  0.026799450711346342
0.09975                   0.026689895105652933
0.0999                    0.02659461548992354
0.100125                  0.026418332248428808
0.100275                  0.026278567542165218
0.10050000000000002       0.02603555666486916
0.10065                   0.0258537047222333
0.10087499999999999       0.025553067429434164
0.101025                  0.025334069648337853
0.10125000000000002       0.024977713597848023
0.1014                    0.02472156997829132
0.101625                  0.024309495170110922
0.101775                  0.024016205712093768
0.102                     0.023548412146222705
0.10214999999999998       0.02322108656160739
0.10237499999999997       0.02270900782027454
0.10252499999999998       0.022353561749779347
0.10275                   0.021799302279626488
0.10289999999999998       0.021415735723251377
0.103125                  0.02081929552427861
0.10327499999999999       0.020407608482023464
0.1035                    0.019768987554230878
0.10364999999999999       0.019332723630479925
0.10387499999999998       0.01866469530815721
0.10402499999999999       0.018210254802144474
0.10424999999999998       0.017514961606428982
0.1044                    0.017042344518154385
0.10462499999999998       0.0163197864490463
0.10477500000000001       0.01582899277850985
0.105                     0.01507916983600922
0.10514999999999998       0.014573899250083441
0.10537499999999998       0.013809946183973637
0.10552499999999997       0.013296612681753143
0.10574999999999998       0.012520565241200888
0.10590000000000001       0.011999168822685286
0.106125                  0.011211027007690638
0.10627499999999998       0.010681567672880095
0.1065                    0.009881331483442977
0.10665000000000002       0.009347405526470457
0.106875                  0.008547669939964366
0.107025                  0.008015281781595005
0.10724999999999997       0.00721785289299374
0.1074                    0.00668700253322764
0.107625                  0.00589188034253101
0.107775                  0.005362567781368201
0.108                     0.004569752288576316
0.10815                   0.004045244573207757
0.10837500000000001       0.0032660182592492157
0.10852499999999997       0.0027515575560068573
0.10875000000000001       0.001987401760237489
0.1089                    0.0014829880691211272
0.10912500000000001       7.339027915410649E-4
0.109275                  2.3953611255079607E-4
0.10949999999999999       -4.944786468398905E-4
0.10964999999999998       -9.760414322755155E-4
0.109875                  -0.0016856223767527823
0.11002499999999998       -0.0021501675172868103
0.11024999999999999       -0.002834221994411735
0.11039999999999998       -0.0032817494900441047
0.110625                  -0.003940277499816594
0.11077500000000001       -0.004370787350547535
0.111                     -0.005003788892967592
0.11114999999999998       -0.005415163084422644
0.11137499999999997       -0.006015611922451271
0.11152499999999999       -0.006404836181700679
0.11174999999999997       -0.006972060121420773
0.1119                    -0.007339134448464675
0.112125                  -0.00787313348987622
0.112275                  -0.008218057884714441
0.11249999999999999       -0.008718832027817444
0.11265                   -0.009040200748353973
0.11287499999999999       -0.009503281871112417
0.113025                  -0.009799354647587202
0.11325000000000002       -0.010224491854253056
0.1134                    -0.010495268686665955
0.11362499999999999       -0.010882461977239011
0.113775                  -0.011127942865590188
0.11399999999999999       -0.011477192240070627
0.11414999999999997       -0.0116967026996887
0.114375                  -0.01200612814973372
0.11452500000000002       -0.012199184956842234
0.11474999999999999       -0.012468929928122747
0.11489999999999999       -0.012635533082721565
0.11512499999999996       -0.012865597575237623
0.11527499999999999       -0.013005747077326853
0.11549999999999999       -0.013196131091078455
0.11564999999999998       -0.013309852643461064
0.115875                  -0.013461120961150316
0.11602500000000003       -0.013549090499020033
0.11625                   -0.01366173079493985
0.11639999999999999       -0.013723948318296637
0.116625                  -0.013797960592447117
0.11677499999999999       -0.013834426101290983
0.11699999999999999       -0.0138698103536721
0.11714999999999998       -0.01388117582019523
0.11737499999999998       -0.01388065228615872
0.11752499999999998       -0.013868588774253583
0.11774999999999998       -0.013832921772574646
0.11789999999999998       -0.013797429282241237
0.11812499999999998       -0.01372661881291989
0.11827499999999998       -0.013667697344158196
0.1185                    -0.013561743407194423
0.11864999999999999       -0.013480563717134098
0.118875                  -0.013343940739118617
0.11902499999999999       -0.013242956458491667
0.11925                   -0.013076626594626238
0.11939999999999999       -0.012955837723432626