% Model:              thermoviscous.mph
% Version:            COMSOL 5.4.0.225
% Date:               Oct 28 2019, 07:52
% Dimension:          1
% Nodes:              961
% Expressions:        1
% Description:        Line graph
% cln1x                   Height
0                         398.24401852816976
1.4999999999999996E-4     393.1660157585287
3.75E-4                   385.54901160406695
5.250000000000001E-4      380.4710088344259
7.5E-4                    372.8540046799642
8.999999999999999E-4      367.7760019103231
0.0011250000000000001     360.1589977558614
0.001275                  355.08099498622033
0.0015                    347.4639908317587
0.00165                   340.5128957189893
0.0018750000000000004     330.08625304983514
0.0020250000000000003     323.1351579370657
0.0022500000000000003     312.70851526791165
0.0024000000000000002     305.7574201551422
0.0026250000000000006     295.3307774859881
0.002775                  288.37968237321877
0.003                     277.9530397040646
0.00315                   269.7914820666239
0.0033750000000000004     257.5491456104629
0.003525000000000001      249.3875879730223
0.00375                   237.14525151686135
0.0039                    228.98369387942077
0.004125                  216.7413574232597
0.004275                  208.57979978581912
0.0045                    196.3374633296582
0.004649999999999999      187.62320338848247
0.004874999999999999      174.5518134767186
0.005025                  165.8375535355427
0.0052499999999999995     152.766163623779
0.0053999999999999986     144.05190368260327
0.005624999999999999      130.98051377083945
0.005775000000000001      122.26625382966351
0.006                     109.19486391789988
0.006150000000000001      100.56731597385276
0.0063750000000000005     87.62599405778226
0.006525                  78.99844611373511
0.00675                   66.05712419766465
0.006899999999999999      57.42957625361761
0.007125000000000002      44.48825433754693
0.007274999999999999      35.860706393500024
0.0075                    22.91938447742944
0.007650000000000001      14.950176799791357
0.007875000000000004      2.996365283334432
0.008025000000000001      -4.972842394303344
0.00825                   -16.92665391076018
0.0084                    -24.89586158839812
0.008624999999999999      -36.84967310485492
0.008775                  -44.81888078249303
0.009                     -56.772692298949735
0.009149999999999997      -63.60956991152683
0.009374999999999998      -73.86488633039278
0.009525                  -80.70176394297016
0.009749999999999998      -90.9570803618358
0.0099                    -97.79395797441315
0.010124999999999999      -108.04927439327885
0.010275                  -114.88615200585608
0.010499999999999999      -125.14146842472199
0.01065                   -130.49293655077892
0.010875                  -138.52013873986456
0.011025                  -143.87160686592162
0.01125                   -151.89880905500706
0.011399999999999999      -157.25027718106412
0.011624999999999998      -165.2774793701496
0.011774999999999999      -170.62894749620662
0.012                     -178.6561496852923
0.012150000000000001      -182.30223489590574
0.012375                  -187.77136271182601
0.012525                  -191.41744792243944
0.012750000000000001      -196.88657573835977
0.0129                    -200.5326609489732
0.013125                  -206.00178876489338
0.013275000000000002      -209.64787397550694
0.0135                    -215.11700179142716
0.013649999999999997      -216.9731360888053
0.013874999999999998      -219.75733753487256
0.014025                  -221.61347183225072
0.014249999999999999      -224.39767327831794
0.014399999999999998      -226.25380757569602
0.014624999999999999      -229.03800902176323
0.014775000000000002      -230.8941433191414
0.015                     -233.67834476520858
0.01515                   -233.78828831639794
0.015375                  -233.95320364318187
0.015525                  -234.06314719437117
0.01575                   -234.22806252115512
0.015899999999999997      -234.33800607234446
0.016125                  -234.50292139912838
0.016275                  -234.6128649503177
0.0165                    -234.77778027710164
0.016649999999999998      -233.2985959488921
0.016875                  -231.07981945657775
0.017025000000000002      -229.6006351283682
0.01725                   -227.3818586360539
0.0174                    -225.90267430784434
0.017625000000000002      -223.68389781552997
0.017775                  -222.2047134873205
0.018                     -219.98593699500609
0.01815                   -217.16675692202384
0.018375                  -212.93798681255035
0.018525                  -210.118806739568
0.01875                   -205.89003663009453
0.0189                    -203.07085655711208
0.019124999999999996      -198.84208644763874
0.019274999999999997      -196.02290637465646
0.019499999999999997      -191.79413626518274
0.01965                   -187.95073801048497
0.019875                  -182.18564062843808
0.020025                  -178.34224237374025
0.02025                   -172.57714499169353
0.0204                    -168.73374673699558
0.020624999999999998      -162.96864935494887
0.020775000000000002      -159.1252511002509
0.020999999999999998      -153.3601537182041
0.02115                   -148.8474489574081
0.021374999999999995      -142.07839181621415
0.021525000000000002      -137.5656870554179
0.02175                   -130.7966299142239
0.0219                    -126.283925153428
0.022125                  -119.51486801223402
0.022275000000000003      -115.00216325143779
0.0225                    -108.233106110244
0.022649999999999997      -103.41758881346621
0.022875000000000003      -96.19431286829861
0.023025000000000007      -91.37879557152037
0.023249999999999996      -84.15551962635358
0.0234                    -79.34000232957543
0.023625                  -72.11672638440838
0.023775000000000004      -67.3012090876301
0.024                     -60.07793314246317
0.024149999999999998      -55.311943704189986
0.024374999999999997      -48.162959546779824
0.024525000000000005      -43.396970108506316
0.02475                   -36.24798595109634
0.0249                    -31.48199651282319
0.025125000000000005      -24.33301235541292
0.025275                  -19.567022917139646
0.0255                    -12.418038759729649
0.025649999999999996      -8.017403697315855
0.025875                  -1.4164511036950418
0.026024999999999996      2.984183958718833
0.02625                   9.585136552339824
0.0264                    13.985771614753789
0.026625000000000003      20.586724208374562
0.026775000000000004      24.987359270788527
0.027                     31.588311864409153
0.027149999999999997      35.362078932930004
0.027374999999999997      41.022729535711306
0.027525                  44.796496604232274
0.027749999999999997      50.45714720701357
0.027899999999999994      54.23091427553441
0.028124999999999997      59.89156487831586
0.02827499999999999       63.66533194683649
0.028499999999999998      69.32598254961792
0.028649999999999995      72.2781513239204
0.028874999999999998      76.70640448537426
0.029025                  79.65857325967644
0.029249999999999998      84.08682642113013
0.0294                    87.03899519543263
0.029625                  91.46724835688626
0.029775000000000003      94.41941713118871
0.03                      98.84767029264239
0.03015                   100.85709887341473
0.030375                  103.87124174457324
0.030525                  105.88067032534558
0.03075                   108.89481319650407
0.030899999999999997      110.90424177727641
0.031125                  113.91838464843502
0.031275                  115.92781322920735
0.0315                    118.94195610036589
0.03165                   119.9623066868377
0.031875                  121.49283256654535
0.032025                  122.51318315301715
0.03225                   124.04370903272482
0.0324                    125.06405961919658
0.032625                  126.59458549890422
0.032775                  127.614936085376
0.033                     129.1454619650837
0.03314999999999999       129.20127182404627
0.033375                  129.2849866124901
0.033525                  129.34079647145265
0.03375                   129.42451125989646
0.0339                    129.48032111885902
0.034125                  129.56403590730284
0.034275                  129.6198457662654
0.0345                    129.7035605547092
0.03465                   128.88191700004688
0.03487500000000001       127.64945166805339
0.03502500000000001       126.82780811339104
0.035250000000000004      125.59534278139753
0.0354                    124.7736992267352
0.035625000000000004      123.54123389474164
0.035775                  122.71959034007931
0.036                     121.48712500808581
0.036149999999999995      119.92591822397115
0.036375                  117.58410804779915
0.036524999999999995      116.02290126368437
0.03675                   113.68109108751234
0.0369                    112.11988430339764
0.037125                  109.77807412722555
0.03727499999999998       108.21686734311105
0.0375                    105.87505716693897
0.037649999999999996      103.74892311681673
0.037875000000000006      100.55972204163318
0.038024999999999996      98.43358799151122
0.03824999999999999       95.24438691632788
0.038400000000000004      93.11825286620564
0.03862499999999999       89.92905179102257
0.038775                  87.80291774090028
0.03899999999999999       84.6137166657171
0.039150000000000004      82.11883290963011
0.039375                  78.37650727549996
0.039525000000000005      75.8816235194131
0.03975                   72.13929788528289
0.039900000000000005      69.64441412919588
0.040124999999999994      65.90208849506598
0.04027499999999999       63.407204738979104
0.0405                    59.664879104848744
0.040650000000000006      57.00374396991987
0.040875                  53.012041267526655
0.041025                  50.350906132598084
0.041249999999999995      46.359203430204914
0.041400000000000006      43.69806829527596
0.041624999999999995      39.706365592883124
0.041775                  37.04523045795416
0.041999999999999996      33.05352775556131
0.04215                   30.42074795877714
0.042374999999999996      26.471578263601604
0.04252499999999999       23.838798466817774
0.04274999999999999       19.88962877164203
0.042899999999999994      17.256848974858094
0.043125                  13.307679279682405
0.043275                  10.674899482898388
0.0435                    6.725729787722805
0.043649999999999994      4.295677252694042
0.043875000000000004      0.6505984501505389
0.044024999999999995      -1.779454084878226
0.04425                   -5.424532887421638
0.044399999999999995      -7.854585422450399
0.044625                  -11.499664224993781
0.044774999999999995      -13.929716760022696
0.045                     -17.574795562565978
0.04515                   -19.657803712466166
0.045375                  -22.782315937316525
0.04552499999999999       -24.865324087216653
0.04575                   -27.989836312066945
0.04589999999999999       -30.072844461966998
0.04612499999999999       -33.197356686817265
0.04627499999999999       -35.280364836717396
0.04649999999999999       -38.4048770615678
0.04665                   -40.03345261532703
0.046875                  -42.476315945965595
0.047025                  -44.10489149972465
0.04725                   -46.54775483036328
0.047400000000000005      -48.17633038412245
0.047625                  -50.61919371476099
0.04777500000000001       -52.24776926852013
0.048                     -54.69063259915866
0.04815                   -55.79805966668503
0.048374999999999994      -57.45920026797468
0.048525                  -58.566627335501266
0.048749999999999995      -60.22776793679091
0.0489                    -61.33519500431744
0.049125                  -62.99633560560721
0.049275000000000006      -64.10376267313369
0.0495                    -65.76490327442338
0.04964999999999999       -66.3257941135126
0.049875                  -67.1671303721465
0.05002500000000001       -67.72802121123574
0.05025000000000001       -68.56935746986966
0.0504                    -69.13024830895883
0.05062500000000001       -69.97158456759277
0.050775                  -70.53247540668193
0.051                     -71.37381166531584
0.05114999999999999       -71.40192161355291
0.051375000000000004      -71.44408653590854
0.051525                  -71.47219648414561
0.05175                   -71.51436140650124
0.051899999999999995      -71.54247135473831
0.05212499999999999       -71.58463627709392
0.05227500000000001       -71.612746225331
0.0525                    -71.65491114768663
0.052649999999999995      -71.19852715016091
0.052875                  -70.51395115387231
0.053024999999999996      -70.05756715634661
0.05325                   -69.37299116005804
0.0534                    -68.9166071625323
0.053625000000000006      -68.23203116624373
0.053775                  -67.77564716871797
0.054                     -67.09107117242941
0.05415                   -66.2265125240736
0.05437500000000001       -64.92967455153969
0.054525                  -64.0651159031839
0.05474999999999999       -62.76827793065006
0.0549                    -61.90371928229421
0.05512499999999999       -60.60688130976037
0.055275000000000005      -59.7423226614044
0.0555                    -58.445484688870685
0.055650000000000005      -57.2693308281667
0.055875                  -55.5051000371109
0.056025000000000005      -54.32894617640689
0.056249999999999994      -52.564715385351164
0.05640000000000001       -51.388561524647216
0.05662500000000001       -49.62433073359145
0.05677499999999999       -48.4481768728876
0.056999999999999995      -46.6839460818319
0.057149999999999986      -45.304633967400164
0.057374999999999995      -43.235665795752546
0.057525                  -41.856353681320826
0.057749999999999996      -39.78738550967332
0.05789999999999999       -38.408073395241715
0.058125                  -36.33910522359396
0.058274999999999993      -34.95979310916245
0.058499999999999996      -32.89082493751507
0.058649999999999994      -31.420240418269287
0.058875                  -29.21436363940086
0.059024999999999994      -27.74377912015545
0.05925                   -25.53790234128708
0.05939999999999999       -24.06731782204153
0.059624999999999984      -21.861441043173176
0.05977499999999999       -20.390856523927646
0.06                      -18.18497974505897
0.06014999999999999       -16.73060893162335
0.06037499999999999       -14.549052711469221
0.060524999999999995      -13.094681898033281
0.06074999999999999       -10.913125677879291
0.060899999999999996      -9.45875486444335
0.061125                  -7.277198644289367
0.061274999999999996      -5.822827830853341
0.0615                    -3.6412716106994356
0.06164999999999999       -2.2993872917372027
0.061875000000000006      -0.2865608132931067
0.062025000000000004      1.0553235056691064
0.06225                   3.0681499841128046
0.0624                    4.410034303075268
0.062625                  6.422860781519004
0.062775                  7.764745100481354
0.063                     9.77757157892525
0.06315                   10.927327773396692
0.06337499999999999       12.651962065103652
0.063525                  13.80171825957524
0.06375                   15.526352551282425
0.0639                    16.67610874575382
0.06412500000000002       18.400743037461062
0.064275                  19.550499231932534
0.0645                    21.275133523639617
0.06465                   22.17354033837062
0.06487499999999999       23.521150560466786
0.065025                  24.419557375197822
0.06525                   25.767167597294137
0.0654                    26.665574412024988
0.065625                  28.013184634121476
0.065775                  28.9115914488523
0.066                     30.25920167094869
0.06615                   30.86951739673736
0.06637499999999999       31.78499098542017
0.066525                  32.395306711208825
0.06675                   33.310780299891846
0.0669                    33.92109602568043
0.067125                  34.836569614363356
0.067275                  35.44688534015198
0.0675                    36.36235892883497
0.06765                   36.670674994444305
0.06787500000000002       37.13314909285837
0.06802500000000002       37.441465158467686
0.06825                   37.90393925688171
0.0684                    38.21225532249104
0.068625                  38.67472942090509
0.068775                  38.98304548651444
0.069                     39.4455195849285
0.06914999999999999       39.459545423405274
0.069375                  39.48058418112045
0.06952499999999999       39.49461001959722
0.06974999999999999       39.51564877731239
0.0699                    39.52967461578916
0.07012499999999999       39.55071337350434
0.07027499999999999       39.56473921198111
0.0705                    39.58577796969628
0.07064999999999999       39.33228661364039
0.07087500000000001       38.952049579556444
0.071025                  38.6985582235005
0.07125                   38.3183211894166
0.07139999999999999       38.064829833360676
0.071625                  37.68459279927678
0.07177499999999999       37.43110144322087
0.072                     37.050864409136956
0.07214999999999999       36.57209671935344
0.072375                  35.85394518467827
0.072525                  35.37517749489476
0.07275                   34.65702596021955
0.07289999999999999       34.178258270436075
0.073125                  33.46010673576087
0.07327499999999999       32.98133904597737
0.0735                    32.263187511302164
0.07365                   31.61255491383587
0.073875                  30.6366060176365
0.074025                  29.98597342017019
0.07425                   29.010024523970852
0.07439999999999998       28.359391926504664
0.074625                  27.383443030305234
0.074775                  26.73281043283899
0.075                     25.756861536639523
0.07515                   24.9943023059321
0.075375                  23.850463459870678
0.07552500000000001       23.08790422916312
0.07575000000000001       21.94406538310182
0.0759                    21.1815061523943
0.076125                  20.037667306333013
0.076275                  19.275108075625557
0.07649999999999998       18.13126922956437
0.07664999999999998       17.31860321551323
0.07687500000000001       16.09960419443634
0.07702500000000001       15.286938180385304
0.07725                   14.067939159308557
0.07740000000000001       13.255273145257327
0.07762499999999999       12.036274124180789
0.07777500000000001       11.22360811012956
0.07799999999999999       10.004609089053087
0.07815                   9.201203407972269
0.078375                  7.996094886351248
0.078525                  7.192689205270528
0.07875                   5.987580683649467
0.0789                    5.184175002568837
0.079125                  3.9790664809478336
0.079275                  3.175660799867105
0.0795                    1.9705522782459852
0.07965                   1.2295601437230816
0.079875                  0.11807194193861806
0.08002500000000001       -0.6229201925844816
0.08025                   -1.7344083943689528
0.0804                    -2.475400528891955
0.080625                  -3.586888730676335
0.08077500000000001       -4.327880865199462
0.081                     -5.43936906698386
0.08115                   -6.0739974300902455
0.08137499999999999       -7.025939974749775
0.08152500000000001       -7.6605683378562155
0.08175000000000002       -8.612510882515743
0.0819                    -9.247139245622066
0.082125                  -10.199081790281635
0.08227499999999997       -10.833710153387848
0.08249999999999999       -11.78565269804746
0.08265                   -12.281258768753078
0.082875                  -13.024667874811444
0.08302500000000002       -13.520273945517062
0.08325                   -14.263683051575432
0.08339999999999999       -14.759289122280927
0.083625                  -15.502698228339334
0.08377500000000002       -15.998304299045024
0.08399999999999999       -16.741713405103265
0.08415                   -17.078063050846648
0.08437499999999999       -17.5825875194616
0.08452500000000002       -17.918937165204902
0.08475                   -18.423461633819855
0.0849                    -18.759811279563156
0.085125                  -19.264335748178134
0.085275                  -19.600685393921427
0.0855                    -20.105209862536437
0.08565                   -20.27468386412628
0.085875                  -20.52889486651105
0.08602499999999999       -20.6983688681009
0.08625                   -20.952579870485664
0.08639999999999999       -21.122053872075515
0.086625                  -21.3762648744603
0.08677499999999999       -21.545738876050137
0.087                     -21.79994987843493
0.08714999999999998       -21.806868215981375
0.08737499999999998       -21.81724572230104
0.08752499999999999       -21.824164059847487
0.08775000000000001       -21.83454156616716
0.08789999999999999       -21.841459903713602
0.088125                  -21.851837410033273
0.08827499999999999       -21.858755747579718
0.0885                    -21.869133253899403
0.08864999999999999       -21.728340174759822
0.088875                  -21.51715055605046
0.08902499999999998       -21.37635747691091
0.08925                   -21.165167858201542
0.08940000000000001       -21.024374779061958
0.08962499999999998       -20.81318516035263
0.08977499999999998       -20.672392081213072
0.09                      -20.4612024625037
0.09015                   -20.19607709850132
0.090375                  -19.798389052497722
0.090525                  -19.533263688495346
0.09075                   -19.135575642491748
0.0909                    -18.870450278489407
0.09112500000000001       -18.47276223248582
0.091275                  -18.207636868483448
0.0915                    -17.809948822479875
0.09165000000000001       -17.450029235090938
0.09187500000000001       -16.910149854007535
0.092025                  -16.550230266618655
0.09224999999999998       -16.010350885535292
0.0924                    -15.650431298146392
0.09262499999999999       -15.110551917063058
0.092775                  -14.750632329674096
0.09299999999999999       -14.210752948590796
0.09314999999999998       -13.789169781609642
0.09337499999999999       -13.156795031138028
0.09352499999999998       -12.735211864156936
0.09375                   -12.102837113685233
0.09390000000000001       -11.681253946704063
0.09412500000000003       -11.0488791962324
0.09427499999999998       -10.62729602925143
0.0945                    -9.994921278779769
0.09464999999999998       -9.545831524831033
0.09487499999999997       -8.872196893908033
0.09502499999999998       -8.423107139959257
0.09525                   -7.749472509036151
0.09539999999999998       -7.300382755087581
0.095625                  -6.626748124164497
0.09577499999999999       -6.177658370215794
0.096                     -5.504023739292707
0.09615000000000001       -5.060217177019764
0.09637500000000002       -4.394507333610361
0.096525                  -3.9507007713375044
0.09674999999999999       -3.284990927928173
0.0969                    -2.841184365655197
0.09712499999999999       -2.175474522245881
0.09727500000000001       -1.731667959972917
0.09749999999999999       -1.065958116563539
0.09764999999999999       -0.6567811126037256
0.097875                  -0.04301560666398889
0.09802500000000001       0.3661613972958928
0.09825                   0.9799269032356337
0.09839999999999999       1.3891039071954465
0.098625                  2.002869413135214
0.09877500000000002       2.412046417095074
0.099                     3.02581192303481
0.09915                   3.3761055218188973
0.09937500000000002       3.9015459199950366
0.099525                  4.251839518779072
0.09975                   4.777279916955209
0.0999                    5.127573515739289
0.100125                  5.653013913915392
0.100275                  6.003307512699468
0.10050000000000002       6.528747910875611
0.10065                   6.802148123275883
0.10087499999999999       7.212248441876326
0.101025                  7.485648654276617
0.10125000000000002       7.895748972877141
0.1014                    8.169149185277401
0.101625                  8.579249503877831
0.101775                  8.85264971627813
0.102                     9.262750034878575
0.10214999999999998       9.448113785803178
0.10237499999999997       9.726159412190027
0.10252499999999998       9.911523163114577
0.10275                   10.189568789501463
0.10289999999999998       10.374932540426
0.103125                  10.652978166812876
0.10327499999999999       10.83834191773746
0.1035                    11.116387544124308
0.10364999999999999       11.209541258861462
0.10387499999999998       11.349271830967178
0.10402499999999999       11.442425545704324
0.10424999999999998       11.582156117810054
0.1044                    11.675309832547214
0.10462499999999998       11.815040404652919
0.10477500000000001       11.90819411939009
0.105                     12.0479246914958
0.10514999999999998       12.051288560489992
0.10537499999999998       12.05633436398128
0.10552499999999997       12.059698232975471
0.10574999999999998       12.064744036466758
0.10590000000000001       12.068107905460952
0.106125                  12.073153708952237
0.10627499999999998       12.07651757794643
0.1065                    12.081563381437732
0.10665000000000002       12.003367611239922
0.106875                  11.88607395594325
0.107025                  11.807878185745432
0.10724999999999997       11.690584530448763
0.1074                    11.612388760250957
0.107625                  11.495095104954263
0.107775                  11.416899334756469
0.108                     11.29960567945977
0.10815                   11.15278986028066
0.10837500000000001       10.932566131511914
0.10852499999999997       10.785750312332821
0.10875000000000001       10.565526583564063
0.1089                    10.418710764384935
0.10912500000000001       10.198487035616205
0.109275                  10.051671216437061
0.10949999999999999       9.831447487668381
0.10964999999999998       9.632346934273492
0.109875                  9.333696104181131
0.11002499999999998       9.13459555078623
0.11024999999999999       8.835944720693846
0.11039999999999998       8.636844167298973
0.110625                  8.338193337206608
0.11077500000000001       8.13909278381166
0.111                     7.8404419537193135
0.11114999999999998       7.60736942025054
0.11137499999999997       7.25776062004722
0.11152499999999999       7.024688086578442
0.11174999999999997       6.675079286375141
0.1119                    6.442006752906267
0.112125                  6.0923979527029966
0.112275                  5.859325419234131
0.11249999999999999       5.509716619030896
0.11265                   5.261544614780756
0.11287499999999999       4.889286608405557
0.113025                  4.641114604155385
0.11325000000000002       4.268856597780093
0.1134                    4.020684593529995
0.11362499999999999       3.6484265871547983
0.113775                  3.4002545829046324
0.11399999999999999       3.0279965765293624
0.11414999999999997       2.7828355589736327
0.114375                  2.4150940326398844
0.11452500000000002       2.1699330150840614
0.11474999999999999       1.8021914887503707
0.11489999999999999       1.5570304711946406
0.11512499999999996       1.1892889448609576
0.11527499999999999       0.9441279273051475
0.11549999999999999       0.576386400971463
0.11564999999999998       0.35043870188660353
0.115875                  0.011517153259233859
0.11602500000000003       -0.2144305458256905
0.11625                   -0.55335209445289
0.11639999999999999       -0.7792997935377624
0.116625                  -1.1182213421650442
0.11677499999999999       -1.3441690412499072
0.11699999999999999       -1.6830905898772328
0.11714999999999998       -1.8764405875102046
0.11737499999999998       -2.166465583959701
0.11752499999999998       -2.3598155815926924
0.11774999999999998       -2.649840578042239
0.11789999999999998       -2.8431905756752274
0.11812499999999998       -3.1332155721247545
0.11827499999999998       -3.3265655697577357
0.1185                    -3.61659056620729
0.11864999999999999       -3.767411069225408
0.118875                  -3.993641823752589
0.11902499999999999       -4.14446232677068
0.11925                   -4.3706930812978335
0.11939999999999999       -4.521513584315938
0.119625                  -4.747744338843098
0.11977499999999999       -4.898564841861211
0.12                      -5.124795596388393
0.12015                   -5.226950100464684
0.12037499999999998       -5.380181856579141
0.12052499999999997       -5.4823363606554345
0.12074999999999998       -5.635568116769933
0.1209                    -5.737722620846246
0.12112499999999998       -5.890954376960698
0.121275                  -5.993108881037014
0.12149999999999998       -6.146340637151469
0.12165000000000001       -6.197543134166857
0.12187500000000002       -6.2743468796899515
0.12202500000000001       -6.325549376705334
0.12225                   -6.402353122228395
0.12240000000000001       -6.453555619243784
0.122625                  -6.530359364766855
0.12277499999999998       -6.581561861782227
0.123                     -6.658365607305315
0.12315                   -6.65997166485892
0.12337500000000001       -6.6623807511893265
0.12352499999999998       -6.663986808742928
0.12375                   -6.666395895073336
0.1239                    -6.6680019526269385