% Model:              thermoviscous.mph
% Version:            COMSOL 5.4.0.225
% Date:               Oct 28 2019, 07:52
% Dimension:          1
% Nodes:              961
% Expressions:        1
% Description:        Line graph
% cln1x                   Height
0                         0
1.4999999999999996E-4     -0.026137738785249044
3.75E-4                   -0.06472390014138522
5.250000000000001E-4      -0.0900343764976511
7.5E-4                    -0.1273796442103125
8.999999999999999E-4      -0.15186285813759515
0.0011250000000000001     -0.18796723220678185
0.001275                  -0.2116231837050813
0.0015                    -0.24648666413079315
0.00165                   -0.2691844689000854
0.0018750000000000004     -0.30238293883281525
0.0020250000000000003     -0.32394976064049646
0.0022500000000000003     -0.35545175613080976
0.0024000000000000002     -0.3758875949768796
0.0026250000000000006     -0.40569311602477615
0.002775                  -0.42499797190923505
0.003                     -0.4531070185147146
0.00315                   -0.4711875684145367
0.0033750000000000004     -0.4973044934745009
0.003525000000000001      -0.5140465103212978
0.00375                   -0.5381556358017244
0.0039                    -0.5535591195954963
0.004125                  -0.5756604454963857
0.004275                  -0.5897253962371326
0.0045                    -0.6098189225584844
0.004649999999999999      -0.6224946164128727
0.004874999999999999      -0.6404324461303124
0.005025                  -0.651673858565843
0.0052499999999999995     -0.6674602661549955
0.0053999999999999986     -0.6772673971716682
0.005624999999999999      -0.6909023826325339
0.005775000000000001      -0.6992752322303489
0.006                     -0.7107587955629278
0.006150000000000001      -0.7176880290928978
0.0063750000000000005     -0.727013011809742
0.006525                  -0.7325170885688976
0.00675                   -0.7397043361295204
0.006899999999999999      -0.7437832561178616
0.007125000000000002      -0.7488327685222625
0.007274999999999999      -0.7514865317397891
0.0075                    -0.7543983089879684
0.007650000000000001      -0.7556558608747725
0.007875000000000004      -0.7565515142171767
0.008025000000000001      -0.7564881667869108
0.00825                   -0.755402471153709
0.0084                    -0.7540182244063727
0.008624999999999999      -0.7509511797975658
0.008775                  -0.7482460337331592
0.009                     -0.7431976401487469
0.009149999999999997      -0.7392332259619688
0.009374999999999998      -0.7324333463163228
0.009525                  -0.7273312543089067
0.009749999999999998      -0.7188248579323039
0.0099                    -0.7125850881042495
0.010124999999999999      -0.7023721749966897
0.010275                  -0.6949947273479973
0.010499999999999999      -0.6830752975094802
0.01065                   -0.6746472775281186
0.010875                  -0.6613338494363963
0.011025                  -0.6520106319621278
0.01125                   -0.6373544076310452
0.011399999999999999      -0.6271359926638707
0.011624999999999998      -0.6111369720934283
0.011774999999999999      -0.6000233596333465
0.012                     -0.5826815428235443
0.012150000000000001      -0.5707770530524265
0.012375                  -0.5524587992461129
0.012525                  -0.5399389506088119
0.012750000000000001      -0.5206976585032239
0.0129                    -0.5075624509997402
0.013125                  -0.48739812059487814
0.013275000000000002      -0.4736475542252114
0.0135                    -0.4525601855210744
0.013649999999999997      -0.43830715961860545
0.013874999999999998      -0.4166872498523945
0.014025                  -0.40211372939991635
0.014249999999999999      -0.3800130778086923
0.014399999999999998      -0.36511906280620565
0.014624999999999999      -0.3425376693899683
0.014775000000000002      -0.3273231598374723
0.015                     -0.3042610245962221
0.01515                   -0.28883909882148007
0.015375                  -0.2656823234787726
0.015525                  -0.2502285487965706
0.01575                   -0.2270240000926741
0.015899999999999997      -0.2115383765030129
0.016125                  -0.18828605443792595
0.016275                  -0.17276858194080466
0.0165                    -0.14946848651452838
0.016649999999999998      -0.13402480162812286
0.016875                  -0.11103308971436654
0.017025000000000002      -0.09582115871576495
0.01725                   -0.07317707763371481
0.0174                    -0.058196900522916845
0.017625000000000002      -0.0359004502725724
0.017775                  -0.02115202704957845
0.018                     7.967923690602275E-4
0.01815                   0.015221669715892575
0.018375                  0.03651777607563736
0.018525                  0.05048770720846431
0.01875                   0.07110139424720043
0.0189                    0.08461637916602208
0.019124999999999996      0.10454764688374926
0.019274999999999997      0.11760768558856452
0.019499999999999997      0.13685653398528447
0.01965                   0.14938854773079954
0.019875                  0.1677166743935337
0.020025                  0.17962216286499658
0.02025                   0.1970105016166518
0.0204                    0.2082894648140629
0.020624999999999998      0.2247380156546396
0.020775000000000002      0.23539045357799837
0.020999999999999998      0.25089921650749714
0.02115                   0.2608739154579602
0.021374999999999995      0.27528110332182976
0.021525000000000002      0.28451598818985985
0.02175                   0.2978134549300789
0.0219                    0.3063085257156748
0.022125                  0.3184962713322436
0.022275000000000003      0.32625152803540636
0.0225                    0.33732955252832447
0.022649999999999997      0.3443170311378723
0.022875000000000003      0.35420373586444853
0.023025000000000007      0.36039853022366786
0.023249999999999996      0.36909620857474906
0.0234                    0.3744983186836389
0.023625                  0.3820069706592268
0.023775000000000004      0.38661639651778734
0.024                     0.39293602211788115
0.024149999999999998      0.3967477402034707
0.024374999999999997      0.40187486429445807
0.024525000000000005      0.4048993116635183
0.02475                   0.4088455296797113
0.0249                    0.41108270633224164
0.025125000000000005      0.4138480182736402
0.025275                  0.4152979242096411
0.0255                    0.4168823300762453
0.025649999999999996      0.41756105953952793
0.025875                  0.4180320837356324
0.026024999999999996      0.41798138653382244
0.02625                   0.41735827073228804
0.0264                    0.4165781468653853
0.026625000000000003      0.41486089106621193
0.026775000000000004      0.41335134053421685
0.027                     0.4105399447374045
0.027149999999999997      0.4083351084187098
0.027374999999999997      0.4045568691347465
0.027525                  0.4017240530748232
0.027749999999999997      0.3970038441790169
0.027899999999999994      0.3935430483778653
0.028124999999999997      0.38788086987021614
0.02827499999999999       0.3837920943278362
0.028499999999999998      0.3771879462083442
0.028649999999999995      0.3725193829906366
0.028874999999999998      0.3651461444403092
0.029025                  0.3599837229242481
0.029249999999999998      0.35186969692639014
0.0294                    0.3462134171119745
0.029625                  0.33735860366658577
0.029775000000000003      0.33120846555381633
0.03                      0.3216128646608964
0.03015                   0.31502654746833764
0.030375                  0.30489270267562907
0.030525                  0.2979672268112434
0.03075                   0.2873246440107947
0.030899999999999997      0.2800600094745821
0.031125                  0.26890868866639256
0.031275                  0.2613048954583531
0.0315                    0.24964483664242407
0.03165                   0.24176427897118147
0.031875                  0.2298112761478713
0.032025                  0.22175449672136616
0.03225                   0.209537161265162
0.0324                    0.20130416008339452
0.032625                  0.18882249199429602
0.032775                  0.1804132690572657
0.033                     0.1676672683352728
0.03314999999999999       0.159144293058899
0.033375                  0.14634724506987012
0.033525                  0.1378074896942077
0.03375                   0.12498527155624818
0.0339                    0.11642873608129789
0.034125                  0.1035813477944062
0.034275                  0.09500803222016796
0.0345                    0.08213547378434442
0.03465                   0.0736037148678166
0.03487500000000001       0.06090265680951868
0.03502500000000001       0.052499671648315996
0.035250000000000004      0.039991774223005
0.0354                    0.0317175628171273
0.035625000000000004      0.019402826024803338
0.035775                  0.011257388374250525
0.036                     -8.641877850855044E-4
0.036149999999999995      -0.008830181249916386
0.036375                  -0.020590201502124733
0.036524999999999995      -0.028304235040238816
0.03675                   -0.039686315402371
0.0369                    -0.04714838901376723
0.037125                  -0.05815252948582343
0.03727499999999998       -0.0653626431705013
0.0375                    -0.07598884375248155
0.037649999999999996      -0.08290667874866026
0.037875000000000006      -0.09302348027435275
0.038024999999999996      -0.09959471397909589
0.03824999999999999       -0.10919161356763582
0.038400000000000004      -0.11541624598094526
0.03862499999999999       -0.12449324363233258
0.038775                  -0.13037127475420746
0.03899999999999999       -0.13892837046844328
0.039150000000000004      -0.14443156954021968
0.039375                  -0.1523796016520733
0.039525000000000005      -0.15747377872943574
0.03975                   -0.16480827784966914
0.039900000000000005      -0.16949343293261815
0.040124999999999994      -0.17621439906123046
0.04027499999999999       -0.18049053214976565
0.0405                    -0.18659796528675823
0.040650000000000006      -0.1904496935691109
0.040875                  -0.195898741694302
0.041025                  -0.19931241091220403
0.041249999999999995      -0.2041043704407196
0.041400000000000006      -0.2070799805941717
0.041624999999999995      -0.2112148515260116
0.041775                  -0.2137524026150135
0.041999999999999996      -0.21723018495017785
0.04215                   -0.21932696651645409
0.042374999999999996      -0.2221459608990585
0.04252499999999999       -0.22380783850958874
0.04274999999999999       -0.225974476958575
0.042899999999999994      -0.22720145061335972
0.043125                  -0.22871573312872764
0.043275                  -0.22950780282776687
0.0435                    -0.2303697294095164
0.043649999999999994      -0.23073584583402482
0.043875000000000004      -0.2309829199542818
0.044024999999999995      -0.23094623569011602
0.04425                   -0.23058910877736158
0.044399999999999995      -0.2301496238245217
0.044625                  -0.22918829587875597
0.044774999999999995      -0.2283460102372418
0.045                     -0.2267804812584648
0.04515                   -0.22555430661250161
0.045375                  -0.22345506884813865
0.04552499999999999       -0.22188225980828463
0.04575                   -0.21926307045308535
0.04589999999999999       -0.21734362701934057
0.04612499999999999       -0.21420448607330514
0.04627499999999999       -0.21193840824566945
0.04649999999999999       -0.2082793157087975
0.04665                   -0.20569326632456528
0.046875                  -0.2016098560606419
0.047025                  -0.1987513584263093
0.04725                   -0.19425927578723484
0.047400000000000005      -0.19112832990280157
0.047625                  -0.18622757488857655
0.04777500000000001       -0.18282418075404266
0.048                     -0.1775147533646667
0.04815                   -0.1738708020140424
0.048374999999999994      -0.16826467895578268
0.048525                  -0.16443379956206058
0.048749999999999995      -0.15854728443915542
0.0489                    -0.1545294770023364
0.049125                  -0.1483625698147853
0.049275000000000006      -0.14415783433486948
0.0495                    -0.13771053508267328
0.04964999999999999       -0.13335335387322658
0.049875                  -0.1267449130166464
0.05002500000000001       -0.12229083975065311
0.05025000000000001       -0.11553706080925319
0.0504                    -0.11098609548671401
0.05062500000000001       -0.10408697846049411
0.050775                  -0.0994391210814086
0.051                     -0.09239466597036947
0.05114999999999999       -0.08768442730335362
0.051375000000000004      -0.08061245423165962
0.051525                  -0.07589339546975203
0.05175                   -0.06880819225572045
0.051899999999999995      -0.06408031339892022
0.05212499999999999       -0.05698188004255028
0.05227500000000001       -0.052245181090856754
0.0525                    -0.04513351759214823
0.052649999999999995      -0.04042021439760064
0.052875                  -0.033403922387789574
0.053024999999999996      -0.028762169569256393
0.05325                   -0.021853203123467585
0.0534                    -0.017283000680948735
0.053625000000000006      -0.010481359799181359
0.053775                  -0.0059827077326768275
0.054                     7.11607585068475E-4
0.05415                   0.0051107385743404555
0.05437500000000001       0.011604779957754373
0.054525                  0.015864370813033088
0.05474999999999999       0.022149101995457054
0.0549                    0.02626915271674294
0.05512499999999999       0.03234457369817732
0.055275000000000005      0.03632508428547075
0.0555                    0.042191195065914955
0.055650000000000005      0.04600992106332459
0.055875                  0.051594202665690626
0.056025000000000005      0.055221185471436604
0.056249999999999994      0.06051785228630713
0.05640000000000001       0.06395309190038938
0.05662500000000001       0.06896214392776469
0.05677499999999999       0.07220564035018309
0.056999999999999995      0.07692707759006302
0.057149999999999986      0.07996326915167454
0.057374999999999995      0.0843479545537049
0.057525                  0.08715801019480045
0.057749999999999996      0.09120349171605666
0.05789999999999999       0.09378741143663599
0.058125                  0.09749368907711872
0.058274999999999993      0.099851472877182
0.058499999999999996      0.10321854663689009
0.058649999999999994      0.10534173270164308
0.058875                  0.10834494959350022
0.059024999999999994      0.11022605271789018
0.05925                   0.11286614519920363
0.05939999999999999       0.11450516538323124
0.059624999999999984      0.11678213345400101
0.05977499999999999       0.11817907069766619
0.06                      0.12009291435789256
0.06014999999999999       0.12124630705618411
0.06037499999999999       0.12279620927805654
0.060524999999999995      0.1237093528755945
0.06074999999999999       0.12489888144633601
0.060899999999999996      0.12557177594312
0.061125                  0.1264009308627306
0.061274999999999996      0.12683357625876074
0.0615                    0.12730235752724045
0.06164999999999999       0.12749973143506008
0.061875000000000006      0.12762896805870086
0.062025000000000004      0.12760390964906893
0.06225                   0.1273994977965323
0.0624                    0.12715200706944876
0.062625                  0.12661394674073478
0.062775                  0.1261440236961997
0.063                     0.12527231489130822
0.06315                   0.12459043519333218
0.06337499999999999       0.12342411367727006
0.063525                  0.12255089802049635
0.06375                   0.12109757256623765
0.0639                    0.12003302095066651
0.06412500000000002       0.11829269155821144
0.064275                  0.11703680398384264
0.0645                    0.11500947065319138
0.06465                   0.11357699858938924
0.06487499999999999       0.1113155641578288
0.065025                  0.10973279031288294
0.06525                   0.10724590320960681
0.0654                    0.10551282758351765
0.065625                  0.10280048780852578
0.065775                  0.10091711040129307
0.066                     0.097979317954586
0.06615                   0.09596327137732899
0.06637499999999999       0.09286193269567145
0.066525                  0.0907428610307176
0.06675                   0.08748698471751402
0.0669                    0.08526488796486359
0.067125                  0.08185447402011506
0.067275                  0.0795293521797676
0.0675                    0.07596440060347341
0.06765                   0.07355531037023305
0.06787500000000002       0.06990172031593606
0.06802500000000002       0.06743935714344775
0.06825                   0.06370585768027862
0.0684                    0.06119022156854226
0.068625                  0.057376812696500995
0.068775                  0.0548079036455163
0.069                     0.050914585364602645
0.06914999999999999       0.04831146855712371
0.069375                  0.04440332528710287
0.06952499999999999       0.04179558440122234
0.06974999999999999       0.037880505013599665
0.0699                    0.03526814004931728
0.07012499999999999       0.03134612454409315
0.07027499999999999       0.028729135501409965
0.0705                    0.024800183878583626
0.07064999999999999       0.02219636158224412
0.07087500000000001       0.018320443629303355
0.071025                  0.01575637532172276
0.07125                   0.011940088351921698
0.07139999999999999       0.009415774033100906
0.071625                  0.005659118046439151
0.07177499999999999       0.0031745577163778817
0.072                     -5.22467287144739E-4
0.07214999999999999       -0.0029518334947030915
0.072375                  -0.006537923358936767
0.072525                  -0.008890010303690637
0.07275                   -0.01236018127371793
0.07289999999999999       -0.014634988955667312
0.073125                  -0.017989241031488107
0.07327499999999999       -0.02018676945063324
0.0735                    -0.023425102632247514
0.07365                   -0.025533079236742452
0.073875                  -0.02861548884170895
0.074025                  -0.030617391710503077
0.07425                   -0.03354069071191832
0.07439999999999998       -0.0354365198450113
0.074625                  -0.03820070824287566
0.074775                  -0.03999046364026807
0.075                     -0.04259554143458133
0.07515                   -0.04427064507714859
0.075375                  -0.04668953300865042
0.07552500000000001       -0.04823961327475171
0.07575000000000001       -0.05047096614155381
0.0759                    -0.05189602303118868
0.076125                  -0.05393984083329133
0.076275                  -0.05523987434645982
0.07649999999999998       -0.05709615708386287
0.07664999999999998       -0.05826651261637862
0.07687500000000001       -0.05992171009509903
0.07702500000000001       -0.06095828453421001
0.07725                   -0.062412810372823216
0.07740000000000001       -0.06331560371852978
0.07762499999999999       -0.06456945791703579
0.07777500000000001       -0.06533847016933768
0.07799999999999999       -0.06639165272773673
0.07815                   -0.06702609619175541
0.078375                  -0.06787822300464383
0.078525                  -0.0683799486244765
0.07875                   -0.06903299867108603
0.0789                    -0.06940200644673274
0.079125                  -0.06985597972706331
0.079275                  -0.07009226965852407
0.0795                    -0.07034716617257579
0.07965                   -0.07045350625832734
0.079875                  -0.07052089383833615
0.08002500000000001       -0.07050440385926297
0.08025                   -0.07038754634203466
0.0804                    -0.0702482262981368
0.080625                  -0.06994712368367142
0.08077500000000001       -0.06968497357494875
0.081                     -0.06919962586324631
0.08115                   -0.06882044837168091
0.08137499999999999       -0.0681724718170201
0.08152500000000001       -0.06768768056903765
0.08175000000000002       -0.06688128337975126
0.0819                    -0.06629087837535186
0.082125                  -0.06532606055143989
0.08227499999999997       -0.0646300417906236
0.08249999999999999       -0.06350680333208603
0.08265                   -0.06271333217048046
0.082875                  -0.06146093780039834
0.08302500000000002       -0.06058454980189431
0.08325                   -0.059207780176464594
0.08339999999999999       -0.05824847534106239
0.083625                  -0.056747330460285
0.08377500000000002       -0.055705108787984035
0.08399999999999999       -0.05407958865185937
0.08415                   -0.052964199218518845
0.08437499999999999       -0.05124852876838748
0.08452500000000002       -0.05007635760155255
0.08475                   -0.04827551455117931
0.0849                    -0.04704656165084985
0.085125                  -0.04516054600023463
0.085275                  -0.043874811366410624
0.0855                    -0.04190362311555337
0.08565                   -0.04057163843222238
0.085875                  -0.038551694117273036
0.08602499999999999       -0.037190419714004906
0.08625                   -0.03512654081914999
0.08639999999999999       -0.03373597669594482
0.086625                  -0.031628163221184204
0.08677499999999999       -0.030208309378042066
0.087                     -0.028056561323375754
0.08714999999999998       -0.02661795013880075
0.08737499999999998       -0.024458220385634555
0.08752499999999999       -0.023017191899321617
0.08775000000000001       -0.020853836193549163
0.08789999999999999       -0.019410390405499252
0.088125                  -0.017243408747121356
0.08827499999999999       -0.01579754565733392
0.0885                    -0.013626938046350094
0.08864999999999999       -0.01218848240801821
0.088875                  -0.010047364071315772
0.08902499999999998       -0.008630995260711274
0.08925                   -0.006523007165599278
0.08940000000000001       -0.00512872518272143
0.08962499999999998       -0.0030538673292004113
0.08977499999999998       -0.0016816721740498435
0.09                      3.6005543788104725E-4
0.09015                   0.0017016406632354767
0.090375                  0.003681920058622103
0.090525                  0.004980707360449731
0.09075                   0.006896789870546366
0.0909                    0.00815277924884719
0.09112500000000001       0.010004664873653788
0.091275                  0.011217856328428085
0.0915                    0.01300554506794462
0.09165000000000001       0.014169167698706853
0.09187500000000001       0.015870591279359726
0.092025                  0.016975533422801187
0.09224999999999998       0.018588936272473072
0.0924                    0.01963519792859404
0.09262499999999999       0.021160580047284983
0.092775                  0.02214816121608554
0.09299999999999999       0.023585522603795536
0.09314999999999998       0.024509694876500558
0.09337499999999999       0.025844112355066912
0.09352499999999998       0.026699163387117274
0.09375                   0.027929899004702077
0.09390000000000001       0.0287158287960981
0.09412500000000003       0.029842882552701098
0.09427499999999998       0.030559691103442282
0.0945                    0.03158306299906357
0.09464999999999998       0.032228189994481606
0.09487499999999997       0.03314043253725969
0.09502499999999998       0.03371162893221266
0.09525                   0.034512975574293184
0.09539999999999998       0.0350102413687808
0.095625                  0.03570069211016362
0.09577499999999999       0.036124027304186276
0.096                     0.03670358214487142
0.09615000000000001       0.03705256249660349
0.09637500000000002       0.03752104638117875
0.096525                  0.037796711208880354
0.09674999999999999       0.03815522180740992
0.0969                    0.038357571111081123
0.09712499999999999       0.03860610842356505
0.09727500000000001       0.03873514220320581
0.09749999999999999       0.03887370622964407
0.09764999999999999       0.03893096366960433
0.097875                  0.03896597864516085
0.09802500000000001       0.03895540783927599
0.09825                   0.03888868044606484
0.09839999999999999       0.038810281394334865
0.098625                  0.03864181163235603
0.09877500000000002       0.03849558433478091
0.099                     0.03822537220403442
0.09915                   0.038014530852844064
0.09937500000000002       0.037654546357958556
0.099525                  0.03738540838263491
0.09975                   0.03693797895154943
0.0999                    0.03661054435209247
0.100125                  0.03607566998480704
0.100275                  0.03568993876121676
0.10050000000000002       0.03506761945773132
0.10065                   0.034628106918363
0.10087499999999999       0.03393453122464598
0.101025                  0.03344927617239162
0.10125000000000002       0.032687086709345434
0.1014                    0.03215608914420514
0.101625                  0.03132528591183011
0.101775                  0.030748545833803737
0.102                     0.029849128832099676
0.10214999999999998       0.02923203649284716
0.10237499999999997       0.02828292690174946
0.10252499999999998       0.027634539786204983
0.10275                   0.026638488030668987
0.10289999999999998       0.025958806138832453
0.103125                  0.02491581221885832
0.10327499999999999       0.024204835550729532
0.1035                    0.023114899466317434
0.10364999999999999       0.02237844834497756
0.10387499999999998       0.021261694188319875
0.10402499999999999       0.0205091397674494
0.10424999999999998       0.019368230661495647
0.1044                    0.018599572941094437
0.10462499999999998       0.017434508885844916
0.10477500000000001       0.01664974786591299
0.105                     0.015460528861367768
0.10514999999999998       0.01466548304214364
0.10537499999999998       0.013471969549951562
0.10552499999999997       0.012675664046253128
0.10574999999999998       0.011480261027349
0.10590000000000001       0.010682695839175648
0.106125                  0.009485403293559553
0.10627499999999998       0.008686578420911532
0.1065                    0.0074873963485833535
0.10665000000000002       0.00669273737290542
0.106875                  0.005509951909204756
0.107025                  0.004727563599947841
0.10724999999999997       0.003563184135878822
0.1074                    0.00279306649304307
0.107625                  0.0016470930286054221
0.107775                  8.892460521908758E-4
0.108                     -2.3832141261524015E-4
0.10815                   -9.79192900550733E-4
0.10837500000000001       -0.0020727239448025047
0.10852499999999997       -0.002789893849202052
0.10875000000000001       -0.0038478725181500823
0.1089                    -0.0045413408390139656
0.10912500000000001       -0.005563767132658068
0.109275                  -0.006233533869986156
0.10949999999999999       -0.007220407788326242
0.10964999999999998       -0.007862737376275684
0.109875                  -0.008801885171053007
0.11002499999999998       -0.009411752642806625
0.11024999999999999       -0.010302207263290283
0.11039999999999998       -0.01087961261884799
0.110625                  -0.011721374065037855
0.11077500000000001       -0.012266317304399952
0.111                     -0.013059385576296031
0.11114999999999998       -0.013569260305197938
0.11137499999999997       -0.01430541140572744
0.11152499999999999       -0.014777071477531087
0.11174999999999997       -0.015455900592413129
0.1119                    -0.015889346007118672
0.112125                  -0.016510853136353212
0.112275                  -0.016906083893960457
0.11249999999999999       -0.017470269037547517
0.11265                   -0.01782587683827764
0.11287499999999999       -0.01832864678801378
0.113025                  -0.018643398920265227
0.11325000000000002       -0.019084885367283384
0.1134                    -0.019358781831056014
0.11362499999999999       -0.01973898477535597
0.113775                  -0.019972025570649945
0.11399999999999999       -0.020290945012231883
0.11414999999999997       -0.020482901799106196
0.114375                  -0.020740461529596455
0.11452500000000002       -0.020891917716709067
0.11474999999999999       -0.021088726547556627
0.11489999999999999       -0.021199682134907433
0.11512499999999996       -0.021335740066112358
0.11527499999999999       -0.021406195053701425
0.11549999999999999       -0.021481502085263695
0.11564999999999998       -0.02151231231932608
0.115875                  -0.021530436045592603
0.11602500000000003       -0.021523790779885577
0.11625                   -0.02148573125649799
0.11639999999999999       -0.021441630491021567
0.116625                  -0.021347387717979876
0.11677499999999999       -0.021265831452734044
0.11699999999999999       -0.021115405430038234
0.11714999999999998       -0.02099817403713166
0.11737499999999998       -0.020798193083607933
0.11752499999999998       -0.020648783205149564
0.11774999999999998       -0.0204005345232981
0.11789999999999998       -0.020218946159287956
0.11812499999999998       -0.01992242974910883
0.11827499999999998       -0.019708662899546894
0.1185                    -0.019363878761040048
0.11864999999999999       -0.019120431530230114
0.118875                  -0.01873633472336487
0.11902499999999999       -0.018467652878354533
0.11925                   -0.01804570415018864
0.11939999999999999       -0.017751787690977797
0.119625                  -0.017291987041511196